* Geometry rescue: EQUI at step 8000
*
        1644  EXT
         1         1  TIP3  OH2           4.5623410174       -1.5338079693       -2.2442454851  CLST           1          1.0000000000
         2         1  TIP3  H1            4.7152835647       -1.7234504233       -1.2726628048  CLST           1          1.0000000000
         3         1  TIP3  H2            5.4126943825       -1.9385258213       -2.5404695076  CLST           1          1.0000000000
         4         2  TIP3  OH2          10.5571388867        7.3800900219      -11.8477849010  CLST           2          1.0000000000
         5         2  TIP3  H1           10.8293061206        7.0991869835      -10.9423686270  CLST           2          1.0000000000
         6         2  TIP3  H2            9.5910760521        7.2831902741      -11.7563399201  CLST           2          1.0000000000
         7         3  TIP3  OH2           8.7699663644        5.2946523308       -4.2125699232  CLST           3          1.0000000000
         8         3  TIP3  H1            9.1548861719        5.4748779510       -3.3276194324  CLST           3          1.0000000000
         9         3  TIP3  H2            8.5889588893        6.1811895282       -4.4988658395  CLST           3          1.0000000000
        10         4  TIP3  OH2          -2.9189599298        6.7221725111       10.1755405157  CLST           4          1.0000000000
        11         4  TIP3  H1           -3.6139681901        7.0677628492        9.5527972101  CLST           4          1.0000000000
        12         4  TIP3  H2           -3.1607501195        7.4482775714       10.8513902911  CLST           4          1.0000000000
        13         5  TIP3  OH2           9.2303991972        6.2481695886       10.6181411498  CLST           5          1.0000000000
        14         5  TIP3  H1            8.8783563940        5.5502543892       11.1994778601  CLST           5          1.0000000000
        15         5  TIP3  H2            9.1040736835        5.8775671433        9.6795840871  CLST           5          1.0000000000
        16         6  TIP3  OH2          10.7289096284       -6.0064478773      -11.6358019962  CLST           6          1.0000000000
        17         6  TIP3  H1           11.2770322758       -5.5233135748      -10.9500683135  CLST           6          1.0000000000
        18         6  TIP3  H2           10.6918699068       -5.2706520084      -12.3103008833  CLST           6          1.0000000000
        19         7  TIP3  OH2         -12.2059632853        8.3434749820        5.8936268908  CLST           7          1.0000000000
        20         7  TIP3  H1          -12.6520812955        9.1928619001        6.1104083931  CLST           7          1.0000000000
        21         7  TIP3  H2          -11.3766851256        8.4512086097        6.4107418321  CLST           7          1.0000000000
        22         8  TIP3  OH2          -4.5801320982       -8.3605724010        0.7303440337  CLST           8          1.0000000000
        23         8  TIP3  H1           -5.1834072981       -7.7244519841        1.1093030471  CLST           8          1.0000000000
        24         8  TIP3  H2           -3.8408377358       -7.9265745520        0.3129299966  CLST           8          1.0000000000
        25         9  TIP3  OH2           2.6505881940      -14.1768186862       -3.9373944553  CLST           9          1.0000000000
        26         9  TIP3  H1            1.7510352579      -14.4054361486       -3.6960615267  CLST           9          1.0000000000
        27         9  TIP3  H2            2.8828966109      -13.7657164504       -3.0841723508  CLST           9          1.0000000000
        28        10  TIP3  OH2         -14.2123736932       -1.1860162299       -0.3671167927  CLST          10          1.0000000000
        29        10  TIP3  H1          -13.9989711128       -1.3555587754       -1.3149594969  CLST          10          1.0000000000
        30        10  TIP3  H2          -14.2645678785       -2.0240960740       -0.0243534674  CLST          10          1.0000000000
        31        11  TIP3  OH2           7.0355708931        6.7465658333       -1.8476302189  CLST          11          1.0000000000
        32        11  TIP3  H1            7.0882198197        5.7884177106       -2.1703068490  CLST          11          1.0000000000
        33        11  TIP3  H2            6.7947697020        7.0839580628       -2.7540321434  CLST          11          1.0000000000
        34        12  TIP3  OH2          -8.2910568892        2.6580357262        1.9858430773  CLST          12          1.0000000000
        35        12  TIP3  H1           -7.6905984707        2.8876312010        1.2301916415  CLST          12          1.0000000000
        36        12  TIP3  H2           -9.1049385687        2.5212518903        1.3720480039  CLST          12          1.0000000000
        37        13  TIP3  OH2           7.7761564755        2.4963530045        2.1026413640  CLST          13          1.0000000000
        38        13  TIP3  H1            7.4423703070        3.3176485129        1.6445948177  CLST          13          1.0000000000
        39        13  TIP3  H2            7.7777783084        2.9173513013        3.0094338302  CLST          13          1.0000000000
        40        14  TIP3  OH2          -0.3023026150        2.2297055820        7.9689365491  CLST          14          1.0000000000
        41        14  TIP3  H1            0.0045177266        3.0946958352        7.5548665925  CLST          14          1.0000000000
        42        14  TIP3  H2            0.4245718494        1.6133621303        7.6705353264  CLST          14          1.0000000000
        43        15  TIP3  OH2          -8.9615937038       -3.8831330885      -12.6936934538  CLST          15          1.0000000000
        44        15  TIP3  H1           -8.5551462411       -4.0126591383      -13.5244518183  CLST          15          1.0000000000
        45        15  TIP3  H2           -8.2740431076       -4.4011289544      -12.1546059385  CLST          15          1.0000000000
        46        16  TIP3  OH2          -3.8302886595      -12.8580598646       -6.2905259401  CLST          16          1.0000000000
        47        16  TIP3  H1           -4.2912290097      -12.8748594037       -5.3586826396  CLST          16          1.0000000000
        48        16  TIP3  H2           -2.8883862941      -12.7167870340       -5.8742050330  CLST          16          1.0000000000
        49        17  TIP3  OH2           4.8708375360      -13.3708501727       -8.4156163573  CLST          17          1.0000000000
        50        17  TIP3  H1            5.3903854251      -13.3825759054       -7.5544733783  CLST          17          1.0000000000
        51        17  TIP3  H2            3.9972780838      -13.4349938480       -7.9944976285  CLST          17          1.0000000000
        52        18  TIP3  OH2         -11.6269594203       -6.7572227395       -1.4738793324  CLST          18          1.0000000000
        53        18  TIP3  H1          -12.0155847352       -5.8879264449       -1.8632392323  CLST          18          1.0000000000
        54        18  TIP3  H2          -11.7234327761       -7.2635356433       -2.3665760347  CLST          18          1.0000000000
        55        19  TIP3  OH2          10.9351070151       -0.1042572898        9.5255837534  CLST          19          1.0000000000
        56        19  TIP3  H1           10.5310973850       -0.9939018398        9.6952558603  CLST          19          1.0000000000
        57        19  TIP3  H2           11.0849812257       -0.2561550893        8.5645817672  CLST          19          1.0000000000
        58        20  TIP3  OH2         -13.3236192058        1.3530948184        2.7890531858  CLST          20          1.0000000000
        59        20  TIP3  H1          -13.0415095273        1.2367608713        1.8588711658  CLST          20          1.0000000000
        60        20  TIP3  H2          -14.2540787637        1.2039089746        2.7934787550  CLST          20          1.0000000000
        61        21  TIP3  OH2          -9.9805322335       12.5674254296       -5.2453951015  CLST          21          1.0000000000
        62        21  TIP3  H1          -10.0185628824       13.4457182920       -5.5003120575  CLST          21          1.0000000000
        63        21  TIP3  H2           -9.1542700396       12.4267748220       -5.7718133033  CLST          21          1.0000000000
        64        22  TIP3  OH2           2.6629732554       12.1327818894       -6.5599426029  CLST          22          1.0000000000
        65        22  TIP3  H1            3.0667489834       11.4009742312       -6.0727445388  CLST          22          1.0000000000
        66        22  TIP3  H2            3.0130407744       12.8804220571       -6.0951436372  CLST          22          1.0000000000
        67        23  TIP3  OH2           5.6114874291       -1.7991803535       11.4592314688  CLST          23          1.0000000000
        68        23  TIP3  H1            5.2459322032       -2.5723103781       11.0294703976  CLST          23          1.0000000000
        69        23  TIP3  H2            5.0573796714       -1.0823073431       11.1343992366  CLST          23          1.0000000000
        70        24  TIP3  OH2          -0.1831495208        1.1230394366        4.4492217988  CLST          24          1.0000000000
        71        24  TIP3  H1            0.4916642343        1.0449577722        5.1616110270  CLST          24          1.0000000000
        72        24  TIP3  H2           -0.8674315077        0.5593193841        4.9226820797  CLST          24          1.0000000000
        73        25  TIP3  OH2           3.3987059337        2.0587104925       -2.4869854749  CLST          25          1.0000000000
        74        25  TIP3  H1            3.7387649868        1.6571486255       -1.6783207428  CLST          25          1.0000000000
        75        25  TIP3  H2            3.7410835264        2.9948014306       -2.4683696971  CLST          25          1.0000000000
        76        26  TIP3  OH2          11.3938311461        5.6034475371       -6.5409053957  CLST          26          1.0000000000
        77        26  TIP3  H1           10.5609983057        5.1922049030       -6.7380964119  CLST          26          1.0000000000
        78        26  TIP3  H2           11.1675988323        6.4205838026       -6.0554848829  CLST          26          1.0000000000
        79        27  TIP3  OH2         -10.3342629890        7.3542389045       -5.5425997431  CLST          27          1.0000000000
        80        27  TIP3  H1          -10.4118219714        7.6747841548       -4.6561685256  CLST          27          1.0000000000
        81        27  TIP3  H2          -10.5885857104        8.0178656474       -6.1518257260  CLST          27          1.0000000000
        82        28  TIP3  OH2          -4.3944716530      -10.2474989197       -6.8767193851  CLST          28          1.0000000000
        83        28  TIP3  H1           -4.3378961762      -11.2440616886       -6.7258046840  CLST          28          1.0000000000
        84        28  TIP3  H2           -5.2800574939      -10.1117303749       -6.5134845297  CLST          28          1.0000000000
        85        29  TIP3  OH2         -10.6992625845        7.5675991473       -2.5921960336  CLST          29          1.0000000000
        86        29  TIP3  H1          -10.1410026839        8.3272779479       -2.1509099617  CLST          29          1.0000000000
        87        29  TIP3  H2          -11.5734216393        8.0156130659       -2.3736472829  CLST          29          1.0000000000
        88        30  TIP3  OH2           8.7699013734      -10.4235773060       -2.2377973668  CLST          30          1.0000000000
        89        30  TIP3  H1            9.2523368218      -10.9980079008       -1.6162010999  CLST          30          1.0000000000
        90        30  TIP3  H2            8.4193562342      -11.1723554827       -2.8391501017  CLST          30          1.0000000000
        91        31  TIP3  OH2          -9.6118414637       -1.2069678990      -13.0892807837  CLST          31          1.0000000000
        92        31  TIP3  H1           -9.4867027891       -2.1635321137      -12.8799498760  CLST          31          1.0000000000
        93        31  TIP3  H2           -9.3456426290       -0.7759294954      -12.2441509779  CLST          31          1.0000000000
        94        32  TIP3  OH2          -8.7758970043       -6.4609117536        7.0264610689  CLST          32          1.0000000000
        95        32  TIP3  H1           -9.7199233199       -6.1741578172        7.0744190099  CLST          32          1.0000000000
        96        32  TIP3  H2           -8.6365408310       -6.0570263578        6.1213046113  CLST          32          1.0000000000
        97        33  TIP3  OH2          11.8182170389       -8.8804263560        8.8313028300  CLST          33          1.0000000000
        98        33  TIP3  H1           11.8741092890       -9.8006991535        9.1468722345  CLST          33          1.0000000000
        99        33  TIP3  H2           11.3346321619       -8.5069383948        9.5700417592  CLST          33          1.0000000000
       100        34  TIP3  OH2           4.2447736867       -3.8912495653        2.8376322352  CLST          34          1.0000000000
       101        34  TIP3  H1            3.6455524586       -4.0964069896        2.0802336236  CLST          34          1.0000000000
       102        34  TIP3  H2            4.0129697180       -4.6475727376        3.4013871501  CLST          34          1.0000000000
       103        35  TIP3  OH2           6.0749753773       -0.7335795665        4.5255969452  CLST          35          1.0000000000
       104        35  TIP3  H1            5.2281788547       -1.0478824619        4.9303217976  CLST          35          1.0000000000
       105        35  TIP3  H2            6.6838341323       -0.2622047239        5.1314434639  CLST          35          1.0000000000
       106        36  TIP3  OH2          -1.5998037231        1.3539623721        2.2536890043  CLST          36          1.0000000000
       107        36  TIP3  H1           -2.1055360245        0.6020334097        2.6000563957  CLST          36          1.0000000000
       108        36  TIP3  H2           -0.9855315823        1.3282246269        3.0482668799  CLST          36          1.0000000000
       109        37  TIP3  OH2          -4.5395069266       -8.2191659895      -12.9026632016  CLST          37          1.0000000000
       110        37  TIP3  H1           -5.2163762564       -8.3394716969      -12.2612760727  CLST          37          1.0000000000
       111        37  TIP3  H2           -4.1608614018       -9.0804882173      -13.1511909310  CLST          37          1.0000000000
       112        38  TIP3  OH2          -3.1777140782        2.2014777334       -4.4777342735  CLST          38          1.0000000000
       113        38  TIP3  H1           -3.0240491598        3.1133583907       -4.8614846644  CLST          38          1.0000000000
       114        38  TIP3  H2           -3.4036636704        1.6924760276       -5.2797305935  CLST          38          1.0000000000
       115        39  TIP3  OH2           1.7527612081      -11.2108346160        2.1247503861  CLST          39          1.0000000000
       116        39  TIP3  H1            1.5050996605      -11.6042601542        2.9801614599  CLST          39          1.0000000000
       117        39  TIP3  H2            0.8828599848      -10.7719871172        1.9678223498  CLST          39          1.0000000000
       118        40  TIP3  OH2          -7.0293952030       12.6079198541        8.1995497888  CLST          40          1.0000000000
       119        40  TIP3  H1           -7.9328312772       12.9270145203        7.9248229776  CLST          40          1.0000000000
       120        40  TIP3  H2           -6.4784697121       12.8629354505        7.4483104381  CLST          40          1.0000000000
       121        41  TIP3  OH2           9.8276014932       -2.1470308680      -11.0548521509  CLST          41          1.0000000000
       122        41  TIP3  H1            9.0421843632       -2.7196284720      -10.7119266427  CLST          41          1.0000000000
       123        41  TIP3  H2            9.5501321452       -1.2566165116      -10.8917552620  CLST          41          1.0000000000
       124        42  TIP3  OH2           9.5949458797       10.2097212307      -10.6861521076  CLST          42          1.0000000000
       125        42  TIP3  H1           10.4763101500        9.9675323776      -10.3129440598  CLST          42          1.0000000000
       126        42  TIP3  H2           10.0321148514       10.2818873552      -11.6010191196  CLST          42          1.0000000000
       127        43  TIP3  OH2          11.8751471261       12.5133517445        7.7466794472  CLST          43          1.0000000000
       128        43  TIP3  H1           12.6672124489       13.0447226607        7.4894591683  CLST          43          1.0000000000
       129        43  TIP3  H2           12.2951238723       11.7781400533        8.2007759681  CLST          43          1.0000000000
       130        44  TIP3  OH2           7.7572346000        0.9904789764        5.9671998141  CLST          44          1.0000000000
       131        44  TIP3  H1            7.8140774847        1.4641884690        6.8447932549  CLST          44          1.0000000000
       132        44  TIP3  H2            7.4916458305        1.7919662891        5.4490703844  CLST          44          1.0000000000
       133        45  TIP3  OH2           7.8949935895        9.4077391642        7.2893511479  CLST          45          1.0000000000
       134        45  TIP3  H1            7.5572025410        8.4728371734        7.3809578369  CLST          45          1.0000000000
       135        45  TIP3  H2            8.8227390784        9.3223648617        7.6392003132  CLST          45          1.0000000000
       136        46  TIP3  OH2          -5.5877183701       -3.1965155394      -12.9339408941  CLST          46          1.0000000000
       137        46  TIP3  H1           -5.2656623861       -4.1451648272      -13.1656258226  CLST          46          1.0000000000
       138        46  TIP3  H2           -4.7809657456       -2.9839688863      -12.4172100421  CLST          46          1.0000000000
       139        47  TIP3  OH2           1.3370482166       -6.5057111081      -10.8866036568  CLST          47          1.0000000000
       140        47  TIP3  H1            1.7584186468       -5.6129242961      -10.7171833466  CLST          47          1.0000000000
       141        47  TIP3  H2            1.3377760257       -6.3903167527      -11.8647890150  CLST          47          1.0000000000
       142        48  TIP3  OH2           5.0531008800        5.6262808527        1.1373508058  CLST          48          1.0000000000
       143        48  TIP3  H1            5.9774557967        5.3163039542        0.8865321333  CLST          48          1.0000000000
       144        48  TIP3  H2            5.3217276281        6.5656808749        1.1603745533  CLST          48          1.0000000000
       145        49  TIP3  OH2          -3.2749958894      -10.5300272017      -13.7344096898  CLST          49          1.0000000000
       146        49  TIP3  H1           -2.4125376903      -10.6515311729      -13.2893736558  CLST          49          1.0000000000
       147        49  TIP3  H2           -3.6668972851      -11.3025218098      -13.3654919262  CLST          49          1.0000000000
       148        50  TIP3  OH2           2.8671594148        3.8786904729        5.9715752216  CLST          50          1.0000000000
       149        50  TIP3  H1            2.0898791457        4.3451133360        6.3590655015  CLST          50          1.0000000000
       150        50  TIP3  H2            2.5540431790        3.5791988898        5.0714195848  CLST          50          1.0000000000
       151        51  TIP3  OH2          -6.5374346189      -10.0592290113       -4.8046521758  CLST          51          1.0000000000
       152        51  TIP3  H1           -6.3770962655       -9.9903171947       -3.8546557437  CLST          51          1.0000000000
       153        51  TIP3  H2           -6.7328480180      -10.9530910190       -5.0248894350  CLST          51          1.0000000000
       154        52  TIP3  OH2           9.0399627330       -5.6301840887       -0.0673155144  CLST          52          1.0000000000
       155        52  TIP3  H1            9.2870440081       -5.3286393313       -1.0007876575  CLST          52          1.0000000000
       156        52  TIP3  H2            9.0394504150       -4.6857546148        0.2939936339  CLST          52          1.0000000000
       157        53  TIP3  OH2          -9.6928973539        9.9979634817      -12.4455106128  CLST          53          1.0000000000
       158        53  TIP3  H1           -9.8054306150       10.3369871303      -13.2193439454  CLST          53          1.0000000000
       159        53  TIP3  H2           -8.7492672028        9.5367782729      -12.5569283411  CLST          53          1.0000000000
       160        54  TIP3  OH2           0.4926830168       -2.8728034177       -9.5591029715  CLST          54          1.0000000000
       161        54  TIP3  H1            1.3689078361       -3.1739354176       -9.8799491791  CLST          54          1.0000000000
       162        54  TIP3  H2            0.1971681363       -2.2395816779      -10.2683438920  CLST          54          1.0000000000
       163        55  TIP3  OH2           2.8795515860       -4.0137593819      -14.6047888091  CLST          55          1.0000000000
       164        55  TIP3  H1            3.2071363617       -4.9397665831      -14.3499588841  CLST          55          1.0000000000
       165        55  TIP3  H2            2.7837994150       -3.9062068951      -15.4369582496  CLST          55          1.0000000000
       166        56  TIP3  OH2          -9.9824754685       11.1563000261        5.8357172685  CLST          56          1.0000000000
       167        56  TIP3  H1           -9.9870051215       10.2793547806        6.2763203639  CLST          56          1.0000000000
       168        56  TIP3  H2          -10.4196417923       10.9738608968        4.9828611477  CLST          56          1.0000000000
       169        57  TIP3  OH2           1.7888084234      -13.3301224209        0.4734529836  CLST          57          1.0000000000
       170        57  TIP3  H1            1.8745020808      -12.4326874299        0.9020799798  CLST          57          1.0000000000
       171        57  TIP3  H2            2.4649062686      -13.3163620721       -0.2147568312  CLST          57          1.0000000000
       172        58  TIP3  OH2         -13.1772496332       10.6140562975        7.0397601897  CLST          58          1.0000000000
       173        58  TIP3  H1          -12.6619082889       11.3456794163        6.6839092172  CLST          58          1.0000000000
       174        58  TIP3  H2          -12.7730815940       10.6281013841        7.9754261262  CLST          58          1.0000000000
       175        59  TIP3  OH2         -11.6623042120       -2.5949952499        5.5470720446  CLST          59          1.0000000000
       176        59  TIP3  H1          -12.0680595589       -2.5651280855        6.4360304950  CLST          59          1.0000000000
       177        59  TIP3  H2          -11.6643076833       -1.6632233407        5.2650958546  CLST          59          1.0000000000
       178        60  TIP3  OH2           1.3323643245        9.5886394927        8.6370288767  CLST          60          1.0000000000
       179        60  TIP3  H1            0.4862786935        9.0436954471        8.3731665339  CLST          60          1.0000000000
       180        60  TIP3  H2            1.8494060001        8.7417004377        8.8137722494  CLST          60          1.0000000000
       181        61  TIP3  OH2           2.7020587790       -0.7179259033       -5.4080887976  CLST          61          1.0000000000
       182        61  TIP3  H1            3.1939636606       -1.5596638527       -5.4849492074  CLST          61          1.0000000000
       183        61  TIP3  H2            1.9981532817       -0.8383379813       -6.1197284750  CLST          61          1.0000000000
       184        62  TIP3  OH2           7.9685276396        8.4171222060       12.3480606558  CLST          62          1.0000000000
       185        62  TIP3  H1            8.0655677298        7.4860732832       12.0531595364  CLST          62          1.0000000000
       186        62  TIP3  H2            7.8603779036        8.8914318391       11.5395765884  CLST          62          1.0000000000
       187        63  TIP3  OH2           4.6733024884       -6.9911993017      -10.2303712310  CLST          63          1.0000000000
       188        63  TIP3  H1            3.8799270450       -7.1927831032      -10.7527436195  CLST          63          1.0000000000
       189        63  TIP3  H2            5.3626301715       -7.4135985661      -10.8747525260  CLST          63          1.0000000000
       190        64  TIP3  OH2          -2.3084925877       11.7889805800        5.3404720453  CLST          64          1.0000000000
       191        64  TIP3  H1           -2.4293270600       10.8024479079        5.4986983635  CLST          64          1.0000000000
       192        64  TIP3  H2           -1.5940231010       11.8077677113        6.0711354578  CLST          64          1.0000000000
       193        65  TIP3  OH2          10.8757880836       -4.2119132886       -5.3159654351  CLST          65          1.0000000000
       194        65  TIP3  H1           11.1688698019       -3.9858569602       -6.2244959712  CLST          65          1.0000000000
       195        65  TIP3  H2           10.5277572602       -3.3677777808       -5.0600538375  CLST          65          1.0000000000
       196        66  TIP3  OH2           6.3305000852       -9.9945116755        9.2331480398  CLST          66          1.0000000000
       197        66  TIP3  H1            5.5792680954       -9.8040521176        8.5961506587  CLST          66          1.0000000000
       198        66  TIP3  H2            7.0137972666       -9.3430927720        8.9702114697  CLST          66          1.0000000000
       199        67  TIP3  OH2         -11.6334450934       -7.7099414543       -3.7937183660  CLST          67          1.0000000000
       200        67  TIP3  H1          -10.8966434831       -7.1994974673       -4.1512018629  CLST          67          1.0000000000
       201        67  TIP3  H2          -11.5478967523       -8.4915392263       -4.3330759552  CLST          67          1.0000000000
       202        68  TIP3  OH2          -0.6624269621       -5.4805375089        5.3687519937  CLST          68          1.0000000000
       203        68  TIP3  H1            0.3561544582       -5.4335210046        5.4961964671  CLST          68          1.0000000000
       204        68  TIP3  H2           -0.8401421519       -5.3043597430        6.3417508980  CLST          68          1.0000000000
       205        69  TIP3  OH2           7.9109571251       11.5938391108       -8.8089135622  CLST          69          1.0000000000
       206        69  TIP3  H1            8.5012047339       11.1967764577       -9.5107254983  CLST          69          1.0000000000
       207        69  TIP3  H2            8.7661594221       11.8439150671       -8.3253265422  CLST          69          1.0000000000
       208        70  TIP3  OH2          -0.9736910465      -12.4592851473       -0.4962485786  CLST          70          1.0000000000
       209        70  TIP3  H1            0.0168102909      -12.4721362363       -0.4443632751  CLST          70          1.0000000000
       210        70  TIP3  H2           -1.0992605362      -12.8188666508        0.4067096310  CLST          70          1.0000000000
       211        71  TIP3  OH2         -10.1313682617       -7.4820664042        2.0374543476  CLST          71          1.0000000000
       212        71  TIP3  H1          -10.6071656915       -6.8048934765        2.5028016012  CLST          71          1.0000000000
       213        71  TIP3  H2          -10.7358907015       -7.8738106048        1.3551464408  CLST          71          1.0000000000
       214        72  TIP3  OH2           0.1268829087        1.9413276679       -1.6254254842  CLST          72          1.0000000000
       215        72  TIP3  H1           -0.2457990911        1.0100518243       -1.6142073814  CLST          72          1.0000000000
       216        72  TIP3  H2            0.8233447161        1.6982444569       -2.2866987866  CLST          72          1.0000000000
       217        73  TIP3  OH2          -9.8004927626       13.0471117631        7.5013547792  CLST          73          1.0000000000
       218        73  TIP3  H1           -9.9044996391       12.3126586528        6.8242696155  CLST          73          1.0000000000
       219        73  TIP3  H2          -10.3174759084       13.6767298460        6.8898036351  CLST          73          1.0000000000
       220        74  TIP3  OH2           6.6831727881       -2.7911036797       -3.6358690641  CLST          74          1.0000000000
       221        74  TIP3  H1            6.5821409997       -3.7544075009       -3.3902397158  CLST          74          1.0000000000
       222        74  TIP3  H2            7.6541923001       -2.6283262314       -3.4887472994  CLST          74          1.0000000000
       223        75  TIP3  OH2           2.8335164390      -13.4207148269       -6.6979646977  CLST          75          1.0000000000
       224        75  TIP3  H1            3.0112428894      -12.5726592239       -6.2202721108  CLST          75          1.0000000000
       225        75  TIP3  H2            2.7880664067      -14.0107391463       -5.9022514317  CLST          75          1.0000000000
       226        76  TIP3  OH2           3.9643429101       -9.7361445070        1.3140611842  CLST          76          1.0000000000
       227        76  TIP3  H1            4.1426731375       -8.8228738212        1.6183775667  CLST          76          1.0000000000
       228        76  TIP3  H2            3.1659759028      -10.0850257887        1.7390317161  CLST          76          1.0000000000
       229        77  TIP3  OH2          10.3088035965       -8.3051476887       -2.6291279987  CLST          77          1.0000000000
       230        77  TIP3  H1            9.6083308553       -9.0716003413       -2.5761068450  CLST          77          1.0000000000
       231        77  TIP3  H2           10.1326612703       -8.0932377321       -3.6129659431  CLST          77          1.0000000000
       232        78  TIP3  OH2          10.7127449278       11.7824429910       -7.8131947689  CLST          78          1.0000000000
       233        78  TIP3  H1           11.3443325613       11.1569925454       -8.3177753273  CLST          78          1.0000000000
       234        78  TIP3  H2           11.2859201252       12.2910146339       -7.3102389135  CLST          78          1.0000000000
       235        79  TIP3  OH2          12.9968083632        0.5765663492        1.2187134585  CLST          79          1.0000000000
       236        79  TIP3  H1           13.7587520548        0.7987475679        1.6339415660  CLST          79          1.0000000000
       237        79  TIP3  H2           12.3417269267        1.2469427872        1.4900560781  CLST          79          1.0000000000
       238        80  TIP3  OH2          -7.4553919918       -0.0544819383        6.6060746974  CLST          80          1.0000000000
       239        80  TIP3  H1           -7.5137068232        0.4969840862        5.8126678318  CLST          80          1.0000000000
       240        80  TIP3  H2           -6.4607751449       -0.2428936748        6.6360695750  CLST          80          1.0000000000
       241        81  TIP3  OH2          -7.5868938471      -10.7458671850        2.0706914051  CLST          81          1.0000000000
       242        81  TIP3  H1           -6.7486797178      -10.9007742667        1.5309629127  CLST          81          1.0000000000
       243        81  TIP3  H2           -7.1696832280      -11.0206230784        2.9259928223  CLST          81          1.0000000000
       244        82  TIP3  OH2          -1.6049960346       -9.9757542622       -6.5077579848  CLST          82          1.0000000000
       245        82  TIP3  H1           -2.5633539461       -9.8239767335       -6.5309083673  CLST          82          1.0000000000
       246        82  TIP3  H2           -1.6166397115      -10.9283279421       -6.2514843798  CLST          82          1.0000000000
       247        83  TIP3  OH2          12.4932620064       -8.4454214313        1.4983552025  CLST          83          1.0000000000
       248        83  TIP3  H1           12.8102178461       -8.0840767048        2.3917366888  CLST          83          1.0000000000
       249        83  TIP3  H2           11.5241259809       -8.1754190805        1.5894513377  CLST          83          1.0000000000
       250        84  TIP3  OH2          -3.5914106547       10.7963542031       -2.2108736303  CLST          84          1.0000000000
       251        84  TIP3  H1           -4.4909731758       10.8112217276       -2.7063597157  CLST          84          1.0000000000
       252        84  TIP3  H2           -3.7856420721       11.5456697854       -1.6370181871  CLST          84          1.0000000000
       253        85  TIP3  OH2           5.8614791074       -2.1635342199        0.1071764024  CLST          85          1.0000000000
       254        85  TIP3  H1            6.0158399824       -1.5754235479        0.8892409292  CLST          85          1.0000000000
       255        85  TIP3  H2            6.5955813806       -2.8056263919        0.2178735588  CLST          85          1.0000000000
       256        86  TIP3  OH2           6.6888986908       -8.4029433343        5.8245883660  CLST          86          1.0000000000
       257        86  TIP3  H1            6.1544568409       -8.7031114825        6.5556178156  CLST          86          1.0000000000
       258        86  TIP3  H2            6.3327812770       -7.5433796268        5.6490798339  CLST          86          1.0000000000
       259        87  TIP3  OH2          -1.3346626194       -3.6842768926       10.7544149398  CLST          87          1.0000000000
       260        87  TIP3  H1           -0.7077123886       -4.0671193507       11.3877271793  CLST          87          1.0000000000
       261        87  TIP3  H2           -2.2702609460       -4.0691979818       10.9807656555  CLST          87          1.0000000000
       262        88  TIP3  OH2          -0.8478771245        4.5796811951       -8.0243597728  CLST          88          1.0000000000
       263        88  TIP3  H1           -1.1286316807        3.5908688986       -7.9595826556  CLST          88          1.0000000000
       264        88  TIP3  H2           -1.7517724301        4.9968642747       -8.1626936938  CLST          88          1.0000000000
       265        89  TIP3  OH2           3.5351021979        0.8715260849      -11.8161703862  CLST          89          1.0000000000
       266        89  TIP3  H1            2.9712057559        1.3469356977      -12.4312007865  CLST          89          1.0000000000
       267        89  TIP3  H2            3.5249758239        0.0476476204      -12.2315221781  CLST          89          1.0000000000
       268        90  TIP3  OH2           5.5693410365       11.2185990524       -5.3912417463  CLST          90          1.0000000000
       269        90  TIP3  H1            5.1048905441       11.9396479851       -4.8050361954  CLST          90          1.0000000000
       270        90  TIP3  H2            5.5304556563       11.6845259496       -6.2412444855  CLST          90          1.0000000000
       271        91  TIP3  OH2           6.0517096795       -7.9317753734      -12.2346422739  CLST          91          1.0000000000
       272        91  TIP3  H1            6.3683161146       -8.8991956616      -12.2332108843  CLST          91          1.0000000000
       273        91  TIP3  H2            6.9223565168       -7.4081233610      -12.1389651175  CLST          91          1.0000000000
       274        92  TIP3  OH2           9.8989513047       11.3377086511        2.4972567329  CLST          92          1.0000000000
       275        92  TIP3  H1           10.1946005353       11.6855839212        3.3629465850  CLST          92          1.0000000000
       276        92  TIP3  H2            9.4776308383       12.0849179106        2.0662949777  CLST          92          1.0000000000
       277        93  TIP3  OH2          -8.7363988346        7.2500470844        2.6591772114  CLST          93          1.0000000000
       278        93  TIP3  H1           -8.5785567748        8.1675963881        2.3643835328  CLST          93          1.0000000000
       279        93  TIP3  H2           -7.8811298653        6.9024639767        2.9826585725  CLST          93          1.0000000000
       280        94  TIP3  OH2         -14.0865653955        6.5527729535        6.5374517329  CLST          94          1.0000000000
       281        94  TIP3  H1          -13.5034905572        7.3766400753        6.4400889000  CLST          94          1.0000000000
       282        94  TIP3  H2          -14.2173377576        6.5160924113        5.5527232514  CLST          94          1.0000000000
       283        95  TIP3  OH2           9.9168782973        5.8899742875       -1.8928243876  CLST          95          1.0000000000
       284        95  TIP3  H1            9.6757178523        5.9589277051       -0.9405688245  CLST          95          1.0000000000
       285        95  TIP3  H2           10.7752963872        5.4142889937       -1.8394968427  CLST          95          1.0000000000
       286        96  TIP3  OH2           9.6317971957      -10.9229625398       11.1945236294  CLST          96          1.0000000000
       287        96  TIP3  H1           10.3264714822      -11.1104285915       10.5551571022  CLST          96          1.0000000000
       288        96  TIP3  H2            9.3335826245      -11.8322735316       11.3997086471  CLST          96          1.0000000000
       289        97  TIP3  OH2          -7.7083044791        6.8772083087        8.5862757437  CLST          97          1.0000000000
       290        97  TIP3  H1           -7.4069408774        5.9487870618        8.9105840998  CLST          97          1.0000000000
       291        97  TIP3  H2           -8.6923768702        6.5923496535        8.5382299796  CLST          97          1.0000000000
       292        98  TIP3  OH2           5.9126398807        0.5533704885       -3.4865330074  CLST          98          1.0000000000
       293        98  TIP3  H1            6.5392453168        0.2094731070       -2.7951192708  CLST          98          1.0000000000
       294        98  TIP3  H2            5.1127517905        0.1800732851       -3.0154856098  CLST          98          1.0000000000
       295        99  TIP3  OH2          -6.7646038557      -11.4617992428        4.8288510661  CLST          99          1.0000000000
       296        99  TIP3  H1           -7.0188761610      -11.4911948567        5.7951759894  CLST          99          1.0000000000
       297        99  TIP3  H2           -5.9316412670      -11.9626943143        5.0487228616  CLST          99          1.0000000000
       298       100  TIP3  OH2           2.2885191017        0.5449109923       -9.1218747625  CLST         100          1.0000000000
       299       100  TIP3  H1            2.6645097488        0.2052273432       -9.9344739064  CLST         100          1.0000000000
       300       100  TIP3  H2            2.5645560223        1.4728383807       -9.2939051033  CLST         100          1.0000000000
       301       101  TIP3  OH2          12.7180142704       -6.8568034541        3.9160900311  CLST         101          1.0000000000
       302       101  TIP3  H1           12.7179542539       -7.4524706660        4.7155151331  CLST         101          1.0000000000
       303       101  TIP3  H2           13.0518196262       -6.0766690513        4.3981777793  CLST         101          1.0000000000
       304       102  TIP3  OH2         -12.1231876504       10.3905143696        1.3613499594  CLST         102          1.0000000000
       305       102  TIP3  H1          -12.6918431102        9.9242447921        2.0259562206  CLST         102          1.0000000000
       306       102  TIP3  H2          -12.2943359905        9.8670342930        0.5430376341  CLST         102          1.0000000000
       307       103  TIP3  OH2          -0.6079529287       -9.3643710864        7.7625244080  CLST         103          1.0000000000
       308       103  TIP3  H1            0.0555657567       -9.3697638744        8.5304060398  CLST         103          1.0000000000
       309       103  TIP3  H2           -1.2455471056      -10.0588249260        8.0843490284  CLST         103          1.0000000000
       310       104  TIP3  OH2          -4.4429324153      -12.2243219038       10.0184024199  CLST         104          1.0000000000
       311       104  TIP3  H1           -5.0147086737      -11.7971415787       10.6794295196  CLST         104          1.0000000000
       312       104  TIP3  H2           -5.0126968819      -12.9439956480        9.6639263609  CLST         104          1.0000000000
       313       105  TIP3  OH2          -5.1175934448       10.7158529526      -11.4934235361  CLST         105          1.0000000000
       314       105  TIP3  H1           -4.6817981908       11.1719335748      -12.3063356449  CLST         105          1.0000000000
       315       105  TIP3  H2           -5.7073875443       10.1077636800      -11.9792691292  CLST         105          1.0000000000
       316       106  TIP3  OH2           7.4576406190       -8.1220348615       -1.3560013101  CLST         106          1.0000000000
       317       106  TIP3  H1            8.2855066251       -7.6942429456       -1.6275603031  CLST         106          1.0000000000
       318       106  TIP3  H2            7.6792401674       -9.0741874783       -1.4681953234  CLST         106          1.0000000000
       319       107  TIP3  OH2          -8.3195745167       -4.7658024645        5.0260391466  CLST         107          1.0000000000
       320       107  TIP3  H1           -8.7933748306       -4.2485506294        4.3690816347  CLST         107          1.0000000000
       321       107  TIP3  H2           -7.3671286137       -4.4631671532        4.8985016819  CLST         107          1.0000000000
       322       108  TIP3  OH2         -10.4691974697        2.0702686169        9.4773029659  CLST         108          1.0000000000
       323       108  TIP3  H1           -9.4996565722        1.8576406634        9.4734117909  CLST         108          1.0000000000
       324       108  TIP3  H2          -10.8379489465        1.2649407910        9.9304118146  CLST         108          1.0000000000
       325       109  TIP3  OH2           2.5135611085        7.0952323560        8.6921809367  CLST         109          1.0000000000
       326       109  TIP3  H1            2.0007646799        6.7150974822        9.4152896367  CLST         109          1.0000000000
       327       109  TIP3  H2            3.1878302962        6.3765069054        8.5637381645  CLST         109          1.0000000000
       328       110  TIP3  OH2           1.5991498382       12.3634250830      -11.1802736077  CLST         110          1.0000000000
       329       110  TIP3  H1            2.1974911581       12.9335460580      -10.9327755259  CLST         110          1.0000000000
       330       110  TIP3  H2            1.0798150830       12.3030292897      -10.3373372492  CLST         110          1.0000000000
       331       111  TIP3  OH2          11.7315028260      -11.7801550873        9.4717376519  CLST         111          1.0000000000
       332       111  TIP3  H1           12.6202653020      -12.0119426589        9.6451566019  CLST         111          1.0000000000
       333       111  TIP3  H2           11.4113678922      -12.6730129955        9.1442767466  CLST         111          1.0000000000
       334       112  TIP3  OH2           6.3531054438       -0.1023705877        1.8266951693  CLST         112          1.0000000000
       335       112  TIP3  H1            7.0202288471        0.6542279366        1.9010539676  CLST         112          1.0000000000
       336       112  TIP3  H2            6.1065955356       -0.2349026242        2.8051306455  CLST         112          1.0000000000
       337       113  TIP3  OH2         -12.8939997814        1.0194563376       -0.0747122599  CLST         113          1.0000000000
       338       113  TIP3  H1          -13.5109079727        0.2155153517       -0.1908627354  CLST         113          1.0000000000
       339       113  TIP3  H2          -12.3939240792        0.8620301785       -0.9227663135  CLST         113          1.0000000000
       340       114  TIP3  OH2         -13.9091608580        3.4486699092       -0.0949790070  CLST         114          1.0000000000
       341       114  TIP3  H1          -13.6886529102        2.4850248357        0.1046130583  CLST         114          1.0000000000
       342       114  TIP3  H2          -13.3838418302        3.4483722037       -0.9240952954  CLST         114          1.0000000000
       343       115  TIP3  OH2          -8.9304193185        0.3580265873      -10.8991858892  CLST         115          1.0000000000
       344       115  TIP3  H1           -8.2447148783        0.9293750978      -11.3162132311  CLST         115          1.0000000000
       345       115  TIP3  H2           -9.5730360833        1.0663219785      -10.8568365187  CLST         115          1.0000000000
       346       116  TIP3  OH2           6.9136455204       -5.6376035150        2.0113076818  CLST         116          1.0000000000
       347       116  TIP3  H1            7.7470766822       -5.7009924826        1.5090907078  CLST         116          1.0000000000
       348       116  TIP3  H2            6.9379667642       -4.7185802180        2.3078695831  CLST         116          1.0000000000
       349       117  TIP3  OH2          -0.8098101483        0.0891068490       12.4185022400  CLST         117          1.0000000000
       350       117  TIP3  H1           -0.2745220284       -0.6986744047       12.7616734062  CLST         117          1.0000000000
       351       117  TIP3  H2           -0.2469961302        0.7196549550       12.9349602057  CLST         117          1.0000000000
       352       118  TIP3  OH2           0.1635191565       -9.5555631568        4.9979486100  CLST         118          1.0000000000
       353       118  TIP3  H1           -0.1593595351       -9.3390580065        5.8993672708  CLST         118          1.0000000000
       354       118  TIP3  H2           -0.2584849226       -8.8559109573        4.4245076067  CLST         118          1.0000000000
       355       119  TIP3  OH2          -9.2066080064      -10.4074115850       -8.7806611424  CLST         119          1.0000000000
       356       119  TIP3  H1           -9.3402487081      -10.8098102288       -9.6912073341  CLST         119          1.0000000000
       357       119  TIP3  H2           -8.8810727338       -9.5783158950       -9.1899515219  CLST         119          1.0000000000
       358       120  TIP3  OH2           9.5785015163       -8.0581949304        1.3299014480  CLST         120          1.0000000000
       359       120  TIP3  H1            8.8936919943       -8.7094884364        1.1268976087  CLST         120          1.0000000000
       360       120  TIP3  H2            9.3323751768       -7.3549138871        0.6705946092  CLST         120          1.0000000000
       361       121  TIP3  OH2          -5.7096376808       -0.2863367125       -8.0681907637  CLST         121          1.0000000000
       362       121  TIP3  H1           -5.5994685266       -0.0562054806       -9.0092239957  CLST         121          1.0000000000
       363       121  TIP3  H2           -4.9550660300       -0.9074452860       -7.9626667042  CLST         121          1.0000000000
       364       122  TIP3  OH2          10.5162122949       12.1311583894        5.1178645173  CLST         122          1.0000000000
       365       122  TIP3  H1            9.6722582195       12.6048027154        5.3844732669  CLST         122          1.0000000000
       366       122  TIP3  H2           10.9238020165       12.1632218570        6.0367004646  CLST         122          1.0000000000
       367       123  TIP3  OH2          -7.4256022322       -5.4573646654      -11.2625702645  CLST         123          1.0000000000
       368       123  TIP3  H1           -7.0231158518       -6.3524209168      -11.2298022004  CLST         123          1.0000000000
       369       123  TIP3  H2           -7.3733020956       -5.2543469111      -10.3150288014  CLST         123          1.0000000000
       370       124  TIP3  OH2          -6.1027017600       -8.5968917828      -10.7666480988  CLST         124          1.0000000000
       371       124  TIP3  H1           -5.3067678703       -8.8332118133      -10.1607822152  CLST         124          1.0000000000
       372       124  TIP3  H2           -6.7271409945       -8.3902533647       -9.9985815202  CLST         124          1.0000000000
       373       125  TIP3  OH2         -13.3861869226        4.1473715314        8.0406240653  CLST         125          1.0000000000
       374       125  TIP3  H1          -13.2420338017        3.4069220428        7.4410051961  CLST         125          1.0000000000
       375       125  TIP3  H2          -13.6859468497        4.9208000997        7.4532602981  CLST         125          1.0000000000
       376       126  TIP3  OH2          -6.9803369048      -10.8514824379      -12.1130355844  CLST         126          1.0000000000
       377       126  TIP3  H1           -6.1059782945      -11.3840199412      -11.8930687254  CLST         126          1.0000000000
       378       126  TIP3  H2           -6.6899651911      -10.0152127457      -11.5732158511  CLST         126          1.0000000000
       379       127  TIP3  OH2          -7.5454526187      -11.6544894322       -6.9870173636  CLST         127          1.0000000000
       380       127  TIP3  H1           -8.0516710189      -12.5135288732       -7.0903342956  CLST         127          1.0000000000
       381       127  TIP3  H2           -7.9158751656      -11.1651525940       -7.8107873903  CLST         127          1.0000000000
       382       128  TIP3  OH2           9.9531181744        0.8388574350       -2.4527029290  CLST         128          1.0000000000
       383       128  TIP3  H1            9.0111615865        0.6160038899       -2.2393239385  CLST         128          1.0000000000
       384       128  TIP3  H2            9.7015809178        1.5191892715       -3.1896349380  CLST         128          1.0000000000
       385       129  TIP3  OH2          -7.8321690930        9.5171910335        1.1014889031  CLST         129          1.0000000000
       386       129  TIP3  H1           -6.9629533918       10.0381572565        1.3604762638  CLST         129          1.0000000000
       387       129  TIP3  H2           -7.2416273468        8.7572369762        0.7102336923  CLST         129          1.0000000000
       388       130  TIP3  OH2          -4.0094925191        4.0468252265        9.9815404602  CLST         130          1.0000000000
       389       130  TIP3  H1           -3.3979093394        4.8698862023       10.0472908955  CLST         130          1.0000000000
       390       130  TIP3  H2           -3.7444977807        3.4892584903       10.8122810713  CLST         130          1.0000000000
       391       131  TIP3  OH2           7.7549514211       -3.7014555057       -9.8852670655  CLST         131          1.0000000000
       392       131  TIP3  H1            7.7088157810       -2.9395620619       -9.2357096396  CLST         131          1.0000000000
       393       131  TIP3  H2            6.7323981026       -3.7352965053       -9.9092452479  CLST         131          1.0000000000
       394       132  TIP3  OH2         -11.5679512460       11.2522418468       12.2620277215  CLST         132          1.0000000000
       395       132  TIP3  H1          -11.1059772291       12.0066197426       11.8172521910  CLST         132          1.0000000000
       396       132  TIP3  H2          -12.4322172753       11.6381863860       12.3509042168  CLST         132          1.0000000000
       397       133  TIP3  OH2          10.3257227478        9.5187078705        8.5617746529  CLST         133          1.0000000000
       398       133  TIP3  H1            9.9596043014        9.9182335704        9.3763501133  CLST         133          1.0000000000
       399       133  TIP3  H2           11.2957177824        9.6819038589        8.6473932090  CLST         133          1.0000000000
       400       134  TIP3  OH2          -7.6279881785        5.8042112484       -6.0617057704  CLST         134          1.0000000000
       401       134  TIP3  H1           -8.4843565410        6.2330746638       -5.8430349143  CLST         134          1.0000000000
       402       134  TIP3  H2           -7.2552565585        5.7208518557       -5.1456674016  CLST         134          1.0000000000
       403       135  TIP3  OH2          10.7442592037      -11.0865101268      -13.2044573167  CLST         135          1.0000000000
       404       135  TIP3  H1           11.0433977797      -10.1845058236      -12.7682761778  CLST         135          1.0000000000
       405       135  TIP3  H2           10.9555988275      -11.0290735661      -14.1115413876  CLST         135          1.0000000000
       406       136  TIP3  OH2          -4.1405251278        1.8226389749       -7.1598462116  CLST         136          1.0000000000
       407       136  TIP3  H1           -4.6401848265        1.0235605114       -7.4913291475  CLST         136          1.0000000000
       408       136  TIP3  H2           -4.8337870149        2.2016743130       -6.5766472253  CLST         136          1.0000000000
       409       137  TIP3  OH2          12.8374761576       10.2260747553        9.1477434811  CLST         137          1.0000000000
       410       137  TIP3  H1           12.8826873257        9.9952026860       10.1289795432  CLST         137          1.0000000000
       411       137  TIP3  H2           13.6994394539        9.8817212780        8.9031571280  CLST         137          1.0000000000
       412       138  TIP3  OH2          -0.8523498670       -9.8930255556        1.6300846328  CLST         138          1.0000000000
       413       138  TIP3  H1           -0.9826044243       -9.5889586065        0.7355342010  CLST         138          1.0000000000
       414       138  TIP3  H2           -0.9071316103       -9.1222704777        2.2520929132  CLST         138          1.0000000000
       415       139  TIP3  OH2          -9.6150927006      -10.7146902391        4.5234537754  CLST         139          1.0000000000
       416       139  TIP3  H1          -10.0494306567      -10.8182633451        3.6511247175  CLST         139          1.0000000000
       417       139  TIP3  H2           -8.8055063858      -11.2446459451        4.3420035673  CLST         139          1.0000000000
       418       140  TIP3  OH2          -7.1081321635        3.4338824988       -0.3457015837  CLST         140          1.0000000000
       419       140  TIP3  H1           -6.2899279485        3.9551048458       -0.1498040963  CLST         140          1.0000000000
       420       140  TIP3  H2           -7.8219646487        4.0972546227       -0.5231874426  CLST         140          1.0000000000
       421       141  TIP3  OH2           2.0128245945       -4.5256830634       -3.6484218007  CLST         141          1.0000000000
       422       141  TIP3  H1            1.5345079242       -3.7028612183       -3.3261928346  CLST         141          1.0000000000
       423       141  TIP3  H2            2.7041277883       -4.0065675895       -4.1144742613  CLST         141          1.0000000000
       424       142  TIP3  OH2         -11.7123643954       -0.0975391974        4.7206363088  CLST         142          1.0000000000
       425       142  TIP3  H1          -11.8481784499        0.5518700958        5.4354430698  CLST         142          1.0000000000
       426       142  TIP3  H2          -11.9959549424        0.4582886148        3.9657614162  CLST         142          1.0000000000
       427       143  TIP3  OH2           9.3702135258       -5.8597843756       -8.2530374138  CLST         143          1.0000000000
       428       143  TIP3  H1            9.4435745332       -5.0818429425       -8.7737347406  CLST         143          1.0000000000
       429       143  TIP3  H2            9.9529379016       -6.5054255551       -8.6784768821  CLST         143          1.0000000000
       430       144  TIP3  OH2           3.3407130779       -2.8192931848        9.0771778308  CLST         144          1.0000000000
       431       144  TIP3  H1            2.5691306581       -2.5420811492        9.6453330766  CLST         144          1.0000000000
       432       144  TIP3  H2            3.3030538949       -2.0907606974        8.4125260048  CLST         144          1.0000000000
       433       145  TIP3  OH2         -10.2217627317       13.3269368075        3.1364896204  CLST         145          1.0000000000
       434       145  TIP3  H1          -10.6138423338       13.2093958551        2.1992965861  CLST         145          1.0000000000
       435       145  TIP3  H2           -9.7399431361       12.4646899228        3.0440676008  CLST         145          1.0000000000
       436       146  TIP3  OH2           9.2214769153        2.6760910483       -4.2445435311  CLST         146          1.0000000000
       437       146  TIP3  H1            8.9451232511        3.6710056362       -4.1478335441  CLST         146          1.0000000000
       438       146  TIP3  H2            8.5570825368        2.5982500383       -5.0284382080  CLST         146          1.0000000000
       439       147  TIP3  OH2         -11.0644045624       -0.3567669312       -4.2015955043  CLST         147          1.0000000000
       440       147  TIP3  H1          -10.1129574906       -0.6416531857       -4.4496785130  CLST         147          1.0000000000
       441       147  TIP3  H2          -11.3810285215       -0.6044391472       -5.1319761750  CLST         147          1.0000000000
       442       148  TIP3  OH2          -7.9049457792        1.3473889894        8.9009316837  CLST         148          1.0000000000
       443       148  TIP3  H1           -7.8887055009        0.9520826550        7.9755096892  CLST         148          1.0000000000
       444       148  TIP3  H2           -6.9244214123        1.5132187484        8.9415353271  CLST         148          1.0000000000
       445       149  TIP3  OH2           8.8141544196       -2.8805791180        0.8626267365  CLST         149          1.0000000000
       446       149  TIP3  H1            9.4904054790       -2.1092317888        0.7731146513  CLST         149          1.0000000000
       447       149  TIP3  H2            8.3685541047       -2.6664163316        1.7263951077  CLST         149          1.0000000000
       448       150  TIP3  OH2          -2.2311213894      -11.5781637679        8.6663440334  CLST         150          1.0000000000
       449       150  TIP3  H1           -3.0910497412      -11.8728980108        9.0507659703  CLST         150          1.0000000000
       450       150  TIP3  H2           -1.5806305524      -11.9359108330        9.3099864045  CLST         150          1.0000000000
       451       151  TIP3  OH2          -9.1679627876       -6.5505979312       -4.8865190987  CLST         151          1.0000000000
       452       151  TIP3  H1           -8.2081222196       -6.6000086538       -4.5384042382  CLST         151          1.0000000000
       453       151  TIP3  H2           -8.9303393941       -7.3546502558       -5.4880722827  CLST         151          1.0000000000
       454       152  TIP3  OH2           3.8327311188       -2.0408180520        4.9659350230  CLST         152          1.0000000000
       455       152  TIP3  H1            4.1819175682       -2.8300137444        5.4707366211  CLST         152          1.0000000000
       456       152  TIP3  H2            3.7397409804       -2.5170090716        4.1061334660  CLST         152          1.0000000000
       457       153  TIP3  OH2          -2.7521363487        4.8465163259      -14.0913004610  CLST         153          1.0000000000
       458       153  TIP3  H1           -2.1681396675        5.4104941221      -13.5710574948  CLST         153          1.0000000000
       459       153  TIP3  H2           -2.4094182093        4.0574578409      -13.6033715298  CLST         153          1.0000000000
       460       154  TIP3  OH2           4.5424691998       -6.8938160142        2.1877284234  CLST         154          1.0000000000
       461       154  TIP3  H1            5.4034575326       -6.3457157344        1.9680761370  CLST         154          1.0000000000
       462       154  TIP3  H2            3.9227180144       -6.4466904232        1.6554796863  CLST         154          1.0000000000
       463       155  TIP3  OH2           9.5027624763       -2.8298501307       10.2093783016  CLST         155          1.0000000000
       464       155  TIP3  H1            8.9381190739       -3.1752458585        9.5017674327  CLST         155          1.0000000000
       465       155  TIP3  H2           10.0485722540       -3.4759615250       10.5703804678  CLST         155          1.0000000000
       466       156  TIP3  OH2          -1.9810148660       11.3731664061       11.5247525971  CLST         156          1.0000000000
       467       156  TIP3  H1           -2.6334267787       11.3945061504       12.2629558029  CLST         156          1.0000000000
       468       156  TIP3  H2           -2.3979275962       10.7413044040       10.8999733679  CLST         156          1.0000000000
       469       157  TIP3  OH2           3.8945962853       -0.7514533168        7.4320588576  CLST         157          1.0000000000
       470       157  TIP3  H1            4.8277869285       -0.8460583945        7.7858260334  CLST         157          1.0000000000
       471       157  TIP3  H2            3.9792524424       -0.9690143517        6.4793031969  CLST         157          1.0000000000
       472       158  TIP3  OH2          10.6247549695        9.2611369906       13.2835095298  CLST         158          1.0000000000
       473       158  TIP3  H1            9.7000079652        8.8261032265       13.2135420903  CLST         158          1.0000000000
       474       158  TIP3  H2           10.3294353978        9.9086757636       12.5828204465  CLST         158          1.0000000000
       475       159  TIP3  OH2           0.5218219032      -12.1694451368        4.3681091742  CLST         159          1.0000000000
       476       159  TIP3  H1           -0.0428358790      -12.5008192737        5.1467195854  CLST         159          1.0000000000
       477       159  TIP3  H2            0.2435317905      -11.2131477495        4.5069226759  CLST         159          1.0000000000
       478       160  TIP3  OH2           7.3808771370       -3.5985927678        8.5827656996  CLST         160          1.0000000000
       479       160  TIP3  H1            6.9118570243       -3.7359461436        7.7147531478  CLST         160          1.0000000000
       480       160  TIP3  H2            6.8994040121       -2.7405269545        8.7577541575  CLST         160          1.0000000000
       481       161  TIP3  OH2          -2.4309264837       -2.4487475696        7.9951235852  CLST         161          1.0000000000
       482       161  TIP3  H1           -1.9748671133       -1.7802536901        8.5666442761  CLST         161          1.0000000000
       483       161  TIP3  H2           -3.3488623257       -2.4321704605        8.3852853768  CLST         161          1.0000000000
       484       162  TIP3  OH2          -0.7661412167        3.6219866963      -10.7849308933  CLST         162          1.0000000000
       485       162  TIP3  H1           -0.4313080335        4.4015816920      -11.3437633128  CLST         162          1.0000000000
       486       162  TIP3  H2           -0.8327435075        3.9572947101       -9.8537660354  CLST         162          1.0000000000
       487       163  TIP3  OH2         -10.0244997686        9.1381592844       11.1627838238  CLST         163          1.0000000000
       488       163  TIP3  H1          -10.7140355841        8.3954820147       11.2742709362  CLST         163          1.0000000000
       489       163  TIP3  H2          -10.4176490003        9.7559968629       11.7736079223  CLST         163          1.0000000000
       490       164  TIP3  OH2           3.9138115118      -10.4646788811       13.1109186257  CLST         164          1.0000000000
       491       164  TIP3  H1            4.3217953413       -9.5730060185       13.0165804336  CLST         164          1.0000000000
       492       164  TIP3  H2            4.5823627820      -10.9395718338       12.5738318623  CLST         164          1.0000000000
       493       165  TIP3  OH2         -12.1657615124       -5.4315246989        3.6704428475  CLST         165          1.0000000000
       494       165  TIP3  H1          -11.9354515029       -5.4168814948        4.6725702913  CLST         165          1.0000000000
       495       165  TIP3  H2          -13.0253733127       -5.5154276093        3.6736470138  CLST         165          1.0000000000
       496       166  TIP3  OH2          -1.5154632470       -6.4366321217      -10.3571693771  CLST         166          1.0000000000
       497       166  TIP3  H1           -0.5491353803       -6.5607695430      -10.3610970900  CLST         166          1.0000000000
       498       166  TIP3  H2           -1.9180278271       -7.2706887487      -10.1688369366  CLST         166          1.0000000000
       499       167  TIP3  OH2           8.1270250432       10.6966393799       -0.8732764104  CLST         167          1.0000000000
       500       167  TIP3  H1            8.6594771032       10.1696343009       -0.1939147097  CLST         167          1.0000000000
       501       167  TIP3  H2            8.5021727003       10.4671240390       -1.7175238310  CLST         167          1.0000000000
       502       168  TIP3  OH2          -0.6493213585      -13.4522063774        2.0804914162  CLST         168          1.0000000000
       503       168  TIP3  H1           -0.3336326745      -13.2035093163        3.0216708931  CLST         168          1.0000000000
       504       168  TIP3  H2            0.2971665388      -13.6986840358        1.8230631090  CLST         168          1.0000000000
       505       169  TIP3  OH2           5.0624681659        4.0315925989        3.2532198167  CLST         169          1.0000000000
       506       169  TIP3  H1            4.0872101427        3.8685439650        3.2595941747  CLST         169          1.0000000000
       507       169  TIP3  H2            5.1199522232        4.7517636027        2.5543483049  CLST         169          1.0000000000
       508       170  TIP3  OH2          -1.1860870076        4.1526986241        1.4348585238  CLST         170          1.0000000000
       509       170  TIP3  H1           -1.9705364864        4.6809442949        1.3879777108  CLST         170          1.0000000000
       510       170  TIP3  H2           -1.4523870474        3.2044882416        1.3552381144  CLST         170          1.0000000000
       511       171  TIP3  OH2          -2.9722255740        1.1969185795        7.3988274770  CLST         171          1.0000000000
       512       171  TIP3  H1           -2.5959265887        0.7576741131        6.5644184261  CLST         171          1.0000000000
       513       171  TIP3  H2           -2.1028711941        1.6026614667        7.6997850228  CLST         171          1.0000000000
       514       172  TIP3  OH2          -6.5060010213      -13.0874625524        8.0819738561  CLST         172          1.0000000000
       515       172  TIP3  H1           -6.8021066139      -13.8830143123        7.8001926594  CLST         172          1.0000000000
       516       172  TIP3  H2           -5.7499731239      -12.8774331024        7.4453811206  CLST         172          1.0000000000
       517       173  TIP3  OH2          10.1871552311      -12.5492747706        1.9291889837  CLST         173          1.0000000000
       518       173  TIP3  H1           10.4106759617      -12.4739276096        0.9261398474  CLST         173          1.0000000000
       519       173  TIP3  H2            9.2089495561      -12.3723365344        1.9295411399  CLST         173          1.0000000000
       520       174  TIP3  OH2          -0.0661906903        5.6679338782        9.9055316720  CLST         174          1.0000000000
       521       174  TIP3  H1           -0.1194087386        4.7191275253       10.2914970650  CLST         174          1.0000000000
       522       174  TIP3  H2           -0.9964533252        5.9753693538        9.9948633970  CLST         174          1.0000000000
       523       175  TIP3  OH2          -5.7069791723       10.4256862356       -3.6658305412  CLST         175          1.0000000000
       524       175  TIP3  H1           -5.2774400679       10.1764843887       -4.5306867852  CLST         175          1.0000000000
       525       175  TIP3  H2           -6.6141076946       10.2861715152       -4.1018483058  CLST         175          1.0000000000
       526       176  TIP3  OH2           6.7083480839        9.2842958810       -7.6891057054  CLST         176          1.0000000000
       527       176  TIP3  H1            7.0500528658       10.0582579085       -8.1548166933  CLST         176          1.0000000000
       528       176  TIP3  H2            6.1574897555        9.6783986525       -7.0177369509  CLST         176          1.0000000000
       529       177  TIP3  OH2          -3.9853412671      -11.4542821895       -1.5612364553  CLST         177          1.0000000000
       530       177  TIP3  H1           -3.4816758854      -12.0717524669       -0.9859274006  CLST         177          1.0000000000
       531       177  TIP3  H2           -4.6053196785      -11.1440748254       -0.8658523131  CLST         177          1.0000000000
       532       178  TIP3  OH2          10.8723017681       -8.9390259988      -11.4898759647  CLST         178          1.0000000000
       533       178  TIP3  H1           11.0845981684       -8.7538160913      -10.5420660519  CLST         178          1.0000000000
       534       178  TIP3  H2           10.8858469278       -7.9861516726      -11.7346009859  CLST         178          1.0000000000
       535       179  TIP3  OH2           6.5007945813       -0.8260729645        8.4348386388  CLST         179          1.0000000000
       536       179  TIP3  H1            6.1660165347       -0.2312684777        9.2003162464  CLST         179          1.0000000000
       537       179  TIP3  H2            7.0784406782       -0.1589167522        7.9929642100  CLST         179          1.0000000000
       538       180  TIP3  OH2          -7.5051431780        8.1748183650        6.0015570906  CLST         180          1.0000000000
       539       180  TIP3  H1           -7.2989830265        7.7126296200        6.8701650606  CLST         180          1.0000000000
       540       180  TIP3  H2           -8.4796785766        8.1043976344        6.1790734619  CLST         180          1.0000000000
       541       181  TIP3  OH2           6.0109166690      -12.8939874203       -0.4417269151  CLST         181          1.0000000000
       542       181  TIP3  H1            6.6936397489      -13.2563138558       -1.0073811130  CLST         181          1.0000000000
       543       181  TIP3  H2            6.3662234211      -12.8668677334        0.4634379408  CLST         181          1.0000000000
       544       182  TIP3  OH2          -1.6384911603       10.4409497893      -10.3303304996  CLST         182          1.0000000000
       545       182  TIP3  H1           -0.9260421860       10.7707393378       -9.7903998816  CLST         182          1.0000000000
       546       182  TIP3  H2           -2.4315821135       10.5315613881       -9.7641732013  CLST         182          1.0000000000
       547       183  TIP3  OH2          -5.4084427811        3.6191677922      -12.3200837613  CLST         183          1.0000000000
       548       183  TIP3  H1           -5.1615841698        3.4964867160      -11.3537620461  CLST         183          1.0000000000
       549       183  TIP3  H2           -6.3379590067        3.2066931482      -12.2808751989  CLST         183          1.0000000000
       550       184  TIP3  OH2           2.9301560528        8.2840393197       -2.3337030950  CLST         184          1.0000000000
       551       184  TIP3  H1            2.8842545850        7.5200855640       -1.6734826545  CLST         184          1.0000000000
       552       184  TIP3  H2            1.9278447710        8.0783557458       -2.5235161314  CLST         184          1.0000000000
       553       185  TIP3  OH2           7.6635881867        4.7010376956       12.1896510515  CLST         185          1.0000000000
       554       185  TIP3  H1            7.7606301344        3.7112386067       12.1109203055  CLST         185          1.0000000000
       555       185  TIP3  H2            7.1760323065        4.8371119688       13.0364301634  CLST         185          1.0000000000
       556       186  TIP3  OH2           3.7571180311        5.9239827547       -5.1898039975  CLST         186          1.0000000000
       557       186  TIP3  H1            4.1057935818        6.8391286543       -5.2728836582  CLST         186          1.0000000000
       558       186  TIP3  H2            3.7806282893        5.6141383069       -6.1033779854  CLST         186          1.0000000000
       559       187  TIP3  OH2           4.1484676808        1.7600248385       -5.5202057884  CLST         187          1.0000000000
       560       187  TIP3  H1            4.4238397090        1.6322345569       -4.6059362294  CLST         187          1.0000000000
       561       187  TIP3  H2            3.8412226014        0.8281175987       -5.5870675243  CLST         187          1.0000000000
       562       188  TIP3  OH2          -4.4688421131       -1.5715087947        4.9112161313  CLST         188          1.0000000000
       563       188  TIP3  H1           -4.6936603512       -0.7971913922        4.3753747600  CLST         188          1.0000000000
       564       188  TIP3  H2           -4.6998890598       -1.2414792619        5.8416796758  CLST         188          1.0000000000
       565       189  TIP3  OH2          -5.1690212891        3.5754986302      -15.1634550721  CLST         189          1.0000000000
       566       189  TIP3  H1           -5.3016181246        3.6548181244      -14.1989275641  CLST         189          1.0000000000
       567       189  TIP3  H2           -4.2374720316        3.9133972221      -15.1510082204  CLST         189          1.0000000000
       568       190  TIP3  OH2           7.1755386367       -5.6914745784        5.2579168831  CLST         190          1.0000000000
       569       190  TIP3  H1            6.9791696721       -5.7552448193        4.3085925215  CLST         190          1.0000000000
       570       190  TIP3  H2            8.1164621806       -5.8806625518        5.1177211598  CLST         190          1.0000000000
       571       191  TIP3  OH2         -10.8815906492       -4.8087494417       -6.5252512855  CLST         191          1.0000000000
       572       191  TIP3  H1          -10.0517800084       -4.6183019018       -6.9863040263  CLST         191          1.0000000000
       573       191  TIP3  H2          -10.6828968288       -5.7169774435       -6.2498009928  CLST         191          1.0000000000
       574       192  TIP3  OH2           8.8967182641       14.3158810552        1.8472985922  CLST         192          1.0000000000
       575       192  TIP3  H1            8.4711501905       14.5410459047        2.6693238559  CLST         192          1.0000000000
       576       192  TIP3  H2            9.2257159689       15.1641658746        1.5582417056  CLST         192          1.0000000000
       577       193  TIP3  OH2           6.0825421858      -12.1846366572       11.8512384210  CLST         193          1.0000000000
       578       193  TIP3  H1            6.6140153877      -12.9475016811       11.9459080439  CLST         193          1.0000000000
       579       193  TIP3  H2            6.4005540818      -11.7146160171       11.0693501467  CLST         193          1.0000000000
       580       194  TIP3  OH2          -6.3549486918       -4.4907760281       11.2008493266  CLST         194          1.0000000000
       581       194  TIP3  H1           -6.9147297823       -4.5966213508       11.9652509508  CLST         194          1.0000000000
       582       194  TIP3  H2           -6.9764171019       -4.0507935058       10.5491945951  CLST         194          1.0000000000
       583       195  TIP3  OH2          -7.4307743072        9.2229844573       10.3869793418  CLST         195          1.0000000000
       584       195  TIP3  H1           -8.3751571107        9.0300939613       10.7360172680  CLST         195          1.0000000000
       585       195  TIP3  H2           -7.6326376586        8.6196030490        9.6117792441  CLST         195          1.0000000000
       586       196  TIP3  OH2           6.0524459310      -12.2368312440       -5.9694522252  CLST         196          1.0000000000
       587       196  TIP3  H1            6.2540571243      -11.4767468062       -6.5936170869  CLST         196          1.0000000000
       588       196  TIP3  H2            5.1659794656      -11.8532987689       -5.7451836105  CLST         196          1.0000000000
       589       197  TIP3  OH2           2.1670290819       -9.1995589925       -2.7364667622  CLST         197          1.0000000000
       590       197  TIP3  H1            1.7886035971       -8.2850243599       -2.5506873444  CLST         197          1.0000000000
       591       197  TIP3  H2            3.0695513645       -8.9016769583       -2.5755396495  CLST         197          1.0000000000
       592       198  TIP3  OH2          10.8755125271        1.8619424610        4.6505745816  CLST         198          1.0000000000
       593       198  TIP3  H1            9.9229373559        1.9162709522        4.6408773679  CLST         198          1.0000000000
       594       198  TIP3  H2           11.0280212393        2.7327003060        4.2432012359  CLST         198          1.0000000000
       595       199  TIP3  OH2          -0.0122350439        8.4288129965       -5.9332484014  CLST         199          1.0000000000
       596       199  TIP3  H1           -0.6250183526        8.9161232528       -5.2874347018  CLST         199          1.0000000000
       597       199  TIP3  H2           -0.3723915042        7.4544569635       -5.7608470745  CLST         199          1.0000000000
       598       200  TIP3  OH2          -7.5349835552       11.8789751252       10.9416873865  CLST         200          1.0000000000
       599       200  TIP3  H1           -7.4864508085       10.8781344802       10.8705599640  CLST         200          1.0000000000
       600       200  TIP3  H2           -7.4349104636       12.0855152017        9.9901915164  CLST         200          1.0000000000
       601       201  TIP3  OH2           4.5759062815        0.7792163107       -0.1043609934  CLST         201          1.0000000000
       602       201  TIP3  H1            4.3634360980        1.4557076156        0.5600234236  CLST         201          1.0000000000
       603       201  TIP3  H2            5.2213453968        0.2628605200        0.4599759593  CLST         201          1.0000000000
       604       202  TIP3  OH2          -1.9275610332       -4.2683823771      -12.5189538667  CLST         202          1.0000000000
       605       202  TIP3  H1           -1.6639735199       -4.8781275035      -11.7910576772  CLST         202          1.0000000000
       606       202  TIP3  H2           -2.5425195908       -3.6838164455      -11.9852159317  CLST         202          1.0000000000
       607       203  TIP3  OH2          -0.7229866773       11.4269682555        7.5059451589  CLST         203          1.0000000000
       608       203  TIP3  H1            0.0077799571       10.8669580929        7.8497768369  CLST         203          1.0000000000
       609       203  TIP3  H2           -1.4128251366       11.0018358178        8.0741231839  CLST         203          1.0000000000
       610       204  TIP3  OH2          -5.3613288963        6.3947283116      -13.2678039450  CLST         204          1.0000000000
       611       204  TIP3  H1           -4.7527333520        6.2447016997      -13.9889880202  CLST         204          1.0000000000
       612       204  TIP3  H2           -5.6156674563        5.4358060547      -13.1415169646  CLST         204          1.0000000000
       613       205  TIP3  OH2          -2.3426988544        7.1211718613       -2.6363232278  CLST         205          1.0000000000
       614       205  TIP3  H1           -2.4308921777        7.7935493561       -3.3991407654  CLST         205          1.0000000000
       615       205  TIP3  H2           -1.3094101004        7.1193359537       -2.6089586530  CLST         205          1.0000000000
       616       206  TIP3  OH2           4.9238633368      -11.0062226017       -9.7846459939  CLST         206          1.0000000000
       617       206  TIP3  H1            4.9827507085      -11.9374733766       -9.4400971107  CLST         206          1.0000000000
       618       206  TIP3  H2            5.5784002551      -10.5526884632       -9.1310879991  CLST         206          1.0000000000
       619       207  TIP3  OH2          12.9403762632       10.1543797901       12.2901970912  CLST         207          1.0000000000
       620       207  TIP3  H1           12.4621998001        9.9914120521       13.0555563612  CLST         207          1.0000000000
       621       207  TIP3  H2           13.5994807472       10.2150370925       12.7806443288  CLST         207          1.0000000000
       622       208  TIP3  OH2         -11.6410913324        2.2185269747        6.8028861004  CLST         208          1.0000000000
       623       208  TIP3  H1          -11.1880015903        2.1138384416        7.6735358093  CLST         208          1.0000000000
       624       208  TIP3  H2          -11.2194521352        3.0966389582        6.5124574777  CLST         208          1.0000000000
       625       209  TIP3  OH2           4.5807456057       -9.3246081785        7.2815569150  CLST         209          1.0000000000
       626       209  TIP3  H1            4.0691589967       -9.7388307549        6.5116278868  CLST         209          1.0000000000
       627       209  TIP3  H2            3.8100290644       -8.6672845485        7.4127300276  CLST         209          1.0000000000
       628       210  TIP3  OH2          12.1934507982      -11.1857608142        5.2850051764  CLST         210          1.0000000000
       629       210  TIP3  H1           12.4557396328      -11.0821215652        4.3929180807  CLST         210          1.0000000000
       630       210  TIP3  H2           12.2461548293      -10.2979077971        5.7212261541  CLST         210          1.0000000000
       631       211  TIP3  OH2          -0.3406283621       -9.1512755766       12.1920409582  CLST         211          1.0000000000
       632       211  TIP3  H1            0.2115435296       -9.6017729072       12.9224542553  CLST         211          1.0000000000
       633       211  TIP3  H2           -0.9966492077       -9.9387073872       12.0593797103  CLST         211          1.0000000000
       634       212  TIP3  OH2         -12.2898223618        3.4971117529       -2.5079347432  CLST         212          1.0000000000
       635       212  TIP3  H1          -11.7659996234        4.1068420012       -3.0777662186  CLST         212          1.0000000000
       636       212  TIP3  H2          -11.8146737501        2.6502739795       -2.5883084697  CLST         212          1.0000000000
       637       213  TIP3  OH2          -9.5407817652      -11.2610337965      -11.6432470901  CLST         213          1.0000000000
       638       213  TIP3  H1           -9.6791317090      -11.5244757930      -12.6006920275  CLST         213          1.0000000000
       639       213  TIP3  H2           -8.0523315067      -11.2359281904      -12.7657660073  CLST         213          1.0000000000
       640       214  TIP3  OH2          -6.5202295261        2.1722198175       -5.4844879864  CLST         214          1.0000000000
       641       214  TIP3  H1           -6.3535861707        1.2772372273       -5.0605362050  CLST         214          1.0000000000
       642       214  TIP3  H2           -7.0503265208        2.5671760010       -4.7492825257  CLST         214          1.0000000000
       643       215  TIP3  OH2         -11.7429647521      -12.8963727043        5.6921360438  CLST         215          1.0000000000
       644       215  TIP3  H1          -10.7976668893      -12.9421208177        5.8467053463  CLST         215          1.0000000000
       645       215  TIP3  H2          -11.6836186881      -12.9209049664        4.7022479900  CLST         215          1.0000000000
       646       216  TIP3  OH2         -11.8807132285       -2.3235551843        8.1598504889  CLST         216          1.0000000000
       647       216  TIP3  H1          -10.9024911441       -2.2134548296        8.0329257475  CLST         216          1.0000000000
       648       216  TIP3  H2          -11.8467057432       -3.1492437152        8.7082979272  CLST         216          1.0000000000
       649       217  TIP3  OH2           7.6432724462       -0.3204034706       -1.6275588739  CLST         217          1.0000000000
       650       217  TIP3  H1            8.1524601956       -1.1497169473       -1.7391609908  CLST         217          1.0000000000
       651       217  TIP3  H2            7.2962559381       -0.3295503934       -0.7252009418  CLST         217          1.0000000000
       652       218  TIP3  OH2          -8.2346487202       -3.8896093226        9.0056727315  CLST         218          1.0000000000
       653       218  TIP3  H1           -8.4271178574       -2.9854185456        8.6029931138  CLST         218          1.0000000000
       654       218  TIP3  H2           -7.5951717231       -4.3362340654        8.3960024885  CLST         218          1.0000000000
       655       219  TIP3  OH2         -12.4812290981       -4.5944683588       -2.7223093141  CLST         219          1.0000000000
       656       219  TIP3  H1          -12.7234832442       -3.6922470753       -2.3941803317  CLST         219          1.0000000000
       657       219  TIP3  H2          -12.8696590498       -4.4722057493       -3.6338821712  CLST         219          1.0000000000
       658       220  TIP3  OH2           6.4407918712        6.6436817324        7.7470850309  CLST         220          1.0000000000
       659       220  TIP3  H1            6.0828576966        6.3151451169        6.8772510504  CLST         220          1.0000000000
       660       220  TIP3  H2            5.6128914813        6.4587813333        8.2448105829  CLST         220          1.0000000000
       661       221  TIP3  OH2         -10.4580522922       -7.0527226927       10.3035477025  CLST         221          1.0000000000
       662       221  TIP3  H1           -9.5230386831       -7.2280403547       10.3419292894  CLST         221          1.0000000000
       663       221  TIP3  H2          -10.7469551316       -7.9171289332        9.9688012561  CLST         221          1.0000000000
       664       222  TIP3  OH2          -6.8491378028       -0.8800143755      -13.6843191336  CLST         222          1.0000000000
       665       222  TIP3  H1           -6.3617248634       -1.7646914761      -13.5862582107  CLST         222          1.0000000000
       666       222  TIP3  H2           -7.5331906209       -1.0197078048      -13.0150669131  CLST         222          1.0000000000
       667       223  TIP3  OH2           2.7020733519      -10.7397765152      -11.5547607822  CLST         223          1.0000000000
       668       223  TIP3  H1            2.1630741592      -11.6212778739      -11.4409438319  CLST         223          1.0000000000
       669       223  TIP3  H2            3.5268991144      -11.0528788721      -11.1465382695  CLST         223          1.0000000000
       670       224  TIP3  OH2           7.5393982576        4.8616259925        0.6292961827  CLST         224          1.0000000000
       671       224  TIP3  H1            8.4562957978        5.0630696853        0.8883220581  CLST         224          1.0000000000
       672       224  TIP3  H2            7.6280748987        4.6327305810       -0.3269539383  CLST         224          1.0000000000
       673       225  TIP3  OH2          -0.2502438267        4.7293804528       -1.2676825692  CLST         225          1.0000000000
       674       225  TIP3  H1           -0.7669741596        4.6276314208       -0.4446544414  CLST         225          1.0000000000
       675       225  TIP3  H2           -0.0652717331        3.7348372911       -1.3870442136  CLST         225          1.0000000000
       676       226  TIP3  OH2          -5.6713232707       -4.4031902423        7.7420545068  CLST         226          1.0000000000
       677       226  TIP3  H1           -5.6519976509       -5.4144127685        7.8642498529  CLST         226          1.0000000000
       678       226  TIP3  H2           -5.7636804091       -4.3505288380        6.7746984098  CLST         226          1.0000000000
       679       227  TIP3  OH2          11.7127677534       -4.1623389144       -9.9039462632  CLST         227          1.0000000000
       680       227  TIP3  H1           11.9244309026       -3.9275748936       -8.9730505431  CLST         227          1.0000000000
       681       227  TIP3  H2           11.3305263851       -3.3187242072      -10.2293071306  CLST         227          1.0000000000
       682       228  TIP3  OH2           3.5402595821       12.2905847469        3.2215043211  CLST         228          1.0000000000
       683       228  TIP3  H1            2.7967187733       11.7613079782        3.7536961703  CLST         228          1.0000000000
       684       228  TIP3  H2            2.9684813850       12.2512532968        2.4757659376  CLST         228          1.0000000000
       685       229  TIP3  OH2         -11.4863875649      -12.9061815002        2.8796898374  CLST         229          1.0000000000
       686       229  TIP3  H1          -11.5100237728      -13.6074886018        2.2751461177  CLST         229          1.0000000000
       687       229  TIP3  H2          -11.1085776715      -12.1554416921        2.3432260429  CLST         229          1.0000000000
       688       230  TIP3  OH2          12.1808171550        6.1696354163       -3.4116639601  CLST         230          1.0000000000
       689       230  TIP3  H1           13.1451254826        6.3174322105       -3.1788575653  CLST         230          1.0000000000
       690       230  TIP3  H2           12.2767726089        5.3084588320       -3.8644460944  CLST         230          1.0000000000
       691       231  TIP3  OH2           7.1917177728        3.4174102366        4.7783195266  CLST         231          1.0000000000
       692       231  TIP3  H1            7.3207702636        4.3730138897        4.9544652579  CLST         231          1.0000000000
       693       231  TIP3  H2            6.2988638999        3.4675349420        4.3766782035  CLST         231          1.0000000000
       694       232  TIP3  OH2         -10.3452700549        8.9886388961        7.4986756874  CLST         232          1.0000000000
       695       232  TIP3  H1          -10.6668630323        9.6414187681        8.1528845034  CLST         232          1.0000000000
       696       232  TIP3  H2          -10.2381025492        8.1837962871        8.0422215651  CLST         232          1.0000000000
       697       233  TIP3  OH2           3.5800605057       -5.2999749527        8.0283159516  CLST         233          1.0000000000
       698       233  TIP3  H1            4.3373523042       -5.7075695914        8.6057191607  CLST         233          1.0000000000
       699       233  TIP3  H2            3.3721573588       -4.4691401069        8.6223611071  CLST         233          1.0000000000
       700       234  TIP3  OH2          -3.6352420452        8.4785681256       -0.5759167945  CLST         234          1.0000000000
       701       234  TIP3  H1           -3.3994481935        7.8284472450       -1.2772717601  CLST         234          1.0000000000
       702       234  TIP3  H2           -3.6892775877        9.3066669965       -1.1239434815  CLST         234          1.0000000000
       703       235  TIP3  OH2          -1.9030767006       -3.9965205900       -9.0813403451  CLST         235          1.0000000000
       704       235  TIP3  H1           -1.8922708404       -4.9453454959       -9.3778392750  CLST         235          1.0000000000
       705       235  TIP3  H2           -0.9537681051       -3.7286589480       -9.2542616523  CLST         235          1.0000000000
       706       236  TIP3  OH2          -0.3227181837      -13.6870751662       -3.0165076395  CLST         236          1.0000000000
       707       236  TIP3  H1            0.3273174513      -12.9493885659       -2.9050695869  CLST         236          1.0000000000
       708       236  TIP3  H2           -0.7194875997      -13.4731953951       -2.1109980609  CLST         236          1.0000000000
       709       237  TIP3  OH2          -3.7474594250       -5.0492252117       10.8905076905  CLST         237          1.0000000000
       710       237  TIP3  H1           -4.7271736557       -5.0847802785       11.0104149938  CLST         237          1.0000000000
       711       237  TIP3  H2           -3.5362105917       -5.7962872267       10.3342821085  CLST         237          1.0000000000
       712       238  TIP3  OH2           0.6346321852        4.7128715519        7.3011816849  CLST         238          1.0000000000
       713       238  TIP3  H1            0.0164589032        5.2744486447        6.7968071332  CLST         238          1.0000000000
       714       238  TIP3  H2            0.4388353228        5.1367828350        8.1822829888  CLST         238          1.0000000000
       715       239  TIP3  OH2         -14.0859379832        6.0440784277        3.5827512524  CLST         239          1.0000000000
       716       239  TIP3  H1          -14.1303709579        6.3211949480        2.6592229378  CLST         239          1.0000000000
       717       239  TIP3  H2          -13.6290594057        5.1943078454        3.4868419595  CLST         239          1.0000000000
       718       240  TIP3  OH2         -14.0525319632        8.8237525073       -0.5201819344  CLST         240          1.0000000000
       719       240  TIP3  H1          -14.5857832946        9.1410504887        0.2263572527  CLST         240          1.0000000000
       720       240  TIP3  H2          -13.8129591149        7.8089069273       -0.1563453621  CLST         240          1.0000000000
       721       241  TIP3  OH2          -7.6232304911       -7.7773293125       -8.6097208187  CLST         241          1.0000000000
       722       241  TIP3  H1           -7.9447160428       -8.1094819539       -7.7324767211  CLST         241          1.0000000000
       723       241  TIP3  H2           -7.2920762720       -6.8936743022       -8.3369720939  CLST         241          1.0000000000
       724       242  TIP3  OH2           6.0536734488       -5.7299404785        9.7059909500  CLST         242          1.0000000000
       725       242  TIP3  H1            6.6127697398       -5.0253598875        9.2954750761  CLST         242          1.0000000000
       726       242  TIP3  H2            6.6560708200       -6.4779381324        9.3771335996  CLST         242          1.0000000000
       727       243  TIP3  OH2          -6.6691390545       -7.1840339570       -4.3032540670  CLST         243          1.0000000000
       728       243  TIP3  H1           -6.1403872195       -7.8550522377       -4.6751058629  CLST         243          1.0000000000
       729       243  TIP3  H2           -6.7462347707       -7.6021595472       -3.4038209729  CLST         243          1.0000000000
       730       244  TIP3  OH2           4.8956665035        5.8676873777        5.3980603788  CLST         244          1.0000000000
       731       244  TIP3  H1            5.2658953981        5.3684545767        4.6439287978  CLST         244          1.0000000000
       732       244  TIP3  H2            4.0712813964        5.3622635722        5.5537852096  CLST         244          1.0000000000
       733       245  TIP3  OH2          -7.0651481558        3.7472800278       -7.7960785336  CLST         245          1.0000000000
       734       245  TIP3  H1           -7.0340029479        3.1923851486       -6.9826778832  CLST         245          1.0000000000
       735       245  TIP3  H2           -7.3595565243        4.5487122689       -7.2984620416  CLST         245          1.0000000000
       736       246  TIP3  OH2           2.0395008923       -6.6134729759       -1.8892019384  CLST         246          1.0000000000
       737       246  TIP3  H1            2.0427014382       -5.8851653078       -2.5869183363  CLST         246          1.0000000000
       738       246  TIP3  H2            2.9652418315       -6.7384614797       -1.7689612311  CLST         246          1.0000000000
       739       247  TIP3  OH2           5.9626603260        7.9409100431        0.5811998207  CLST         247          1.0000000000
       740       247  TIP3  H1            6.2157336371        7.5594466882       -0.2981846798  CLST         247          1.0000000000
       741       247  TIP3  H2            5.8935373602        8.9114685503        0.3212580492  CLST         247          1.0000000000
       742       248  TIP3  OH2          -2.4882085384        8.4115725106      -11.9627660866  CLST         248          1.0000000000
       743       248  TIP3  H1           -2.3298814420        8.8180450436      -12.8262932834  CLST         248          1.0000000000
       744       248  TIP3  H2           -2.1060928691        9.1482404615      -11.3795823158  CLST         248          1.0000000000
       745       249  TIP3  OH2           8.7649784342        4.7440638775       -7.6986259698  CLST         249          1.0000000000
       746       249  TIP3  H1            8.6496249219        5.6896392190       -7.4249911962  CLST         249          1.0000000000
       747       249  TIP3  H2            8.2983474927        4.2767160521       -6.9920691334  CLST         249          1.0000000000
       748       250  TIP3  OH2          -7.5165001510        9.8290598360       -5.4817484481  CLST         250          1.0000000000
       749       250  TIP3  H1           -7.6582885244        9.0292860086       -5.9481355864  CLST         250          1.0000000000
       750       250  TIP3  H2           -7.7985965642       10.5569738928       -6.0987064555  CLST         250          1.0000000000
       751       251  TIP3  OH2          -3.5367029602       12.4100751279        3.0828692228  CLST         251          1.0000000000
       752       251  TIP3  H1           -2.9419925072       12.7706518551        2.4653656518  CLST         251          1.0000000000
       753       251  TIP3  H2           -3.0177540823       12.3046604067        3.9227976673  CLST         251          1.0000000000
       754       252  TIP3  OH2           5.9229757216        5.2255764483       14.4811110381  CLST         252          1.0000000000
       755       252  TIP3  H1            5.8640740944        6.2072979395       14.3861946830  CLST         252          1.0000000000
       756       252  TIP3  H2            5.5691737349        5.1203839612       15.3505764385  CLST         252          1.0000000000
       757       253  TIP3  OH2           6.1284165663       13.9939366710        3.1892820192  CLST         253          1.0000000000
       758       253  TIP3  H1            5.2101315997       13.8658613261        3.4654583171  CLST         253          1.0000000000
       759       253  TIP3  H2            6.0306036373       13.7613007758        2.2608956304  CLST         253          1.0000000000
       760       254  TIP3  OH2          -4.1886405523        7.9802728444        3.0479749035  CLST         254          1.0000000000
       761       254  TIP3  H1           -4.4882792346        8.8821387428        2.7937725317  CLST         254          1.0000000000
       762       254  TIP3  H2           -5.0450886982        7.5206495001        3.0712679125  CLST         254          1.0000000000
       763       255  TIP3  OH2          -7.2149269462       10.5465874256        4.2229282460  CLST         255          1.0000000000
       764       255  TIP3  H1           -8.1687308102       10.6844528641        4.0256874069  CLST         255          1.0000000000
       765       255  TIP3  H2           -7.2729150454        9.7984002208        4.8760214453  CLST         255          1.0000000000
       766       256  TIP3  OH2          11.5764069444        3.7966848835       -1.1664447777  CLST         256          1.0000000000
       767       256  TIP3  H1           12.0362277862        3.1447087772       -1.7232094989  CLST         256          1.0000000000
       768       256  TIP3  H2           11.0400045277        3.1836442174       -0.6134439347  CLST         256          1.0000000000
       769       257  TIP3  OH2          -8.5124386557       -1.1811013605       -5.1518918884  CLST         257          1.0000000000
       770       257  TIP3  H1           -7.6096823822       -0.9333374706       -4.8799726922  CLST         257          1.0000000000
       771       257  TIP3  H2           -8.4688024071       -1.0942125302       -6.1138317334  CLST         257          1.0000000000
       772       258  TIP3  OH2          -5.3280304577       10.1904851895        7.7167688764  CLST         258          1.0000000000
       773       258  TIP3  H1           -5.1971673511       11.0151813380        7.1664956851  CLST         258          1.0000000000
       774       258  TIP3  H2           -5.9694975815       10.5704179146        8.3506130093  CLST         258          1.0000000000
       775       259  TIP3  OH2          10.0824930955        6.1383001372        0.8527865440  CLST         259          1.0000000000
       776       259  TIP3  H1           11.0149167737        6.4525832986        0.8896710391  CLST         259          1.0000000000
       777       259  TIP3  H2            9.9778962244        6.1547390665        1.8321911726  CLST         259          1.0000000000
       778       260  TIP3  OH2          -4.8386239095        7.6927624753        8.7600969609  CLST         260          1.0000000000
       779       260  TIP3  H1           -5.1052455811        8.4367831671        8.1979950905  CLST         260          1.0000000000
       780       260  TIP3  H2           -5.6402162230        7.2104853785        8.9657860814  CLST         260          1.0000000000
       781       261  TIP3  OH2           0.6710448445       -4.2342974146       12.3387431395  CLST         261          1.0000000000
       782       261  TIP3  H1            0.3124502775       -5.6554509783       12.4897527343  CLST         261          1.0000000000
       783       261  TIP3  H2            1.1979648680       -5.0955232378       12.6458022756  CLST         261          1.0000000000
       784       262  TIP3  OH2         -10.9167741771        4.6909812410        6.0208288082  CLST         262          1.0000000000
       785       262  TIP3  H1          -10.2243821040        4.5345706765        5.3292639886  CLST         262          1.0000000000
       786       262  TIP3  H2          -11.6850431526        5.0118449563        5.5562164049  CLST         262          1.0000000000
       787       263  TIP3  OH2           1.7157141289        0.8508282172        6.6280262219  CLST         263          1.0000000000
       788       263  TIP3  H1            2.4263502277        1.5463882577        6.6247978961  CLST         263          1.0000000000
       789       263  TIP3  H2            2.3041032084        0.1078967148        6.9045459324  CLST         263          1.0000000000
       790       264  TIP3  OH2           4.9645571600       -4.2550649154       -9.6771128221  CLST         264          1.0000000000
       791       264  TIP3  H1            4.7493385656       -5.2272682675       -9.8405444589  CLST         264          1.0000000000
       792       264  TIP3  H2            4.3341069700       -3.9249408974      -10.3682280747  CLST         264          1.0000000000
       793       265  TIP3  OH2           7.5398042559        4.8984707215      -10.0349700503  CLST         265          1.0000000000
       794       265  TIP3  H1            7.7614950390        5.7451280147      -10.4441940020  CLST         265          1.0000000000
       795       265  TIP3  H2            8.0311010900        4.9324190966       -9.1646345762  CLST         265          1.0000000000
       796       266  TIP3  OH2          -7.9556681239       -8.9189119821        0.0219259333  CLST         266          1.0000000000
       797       266  TIP3  H1           -7.9289727252       -9.3096603096        0.9122139504  CLST         266          1.0000000000
       798       266  TIP3  H2           -8.3402539731       -8.0335607615        0.2014212274  CLST         266          1.0000000000
       799       267  TIP3  OH2           1.2666179882        2.5394026472       -5.1204641226  CLST         267          1.0000000000
       800       267  TIP3  H1            1.5419050591        3.4043132900       -4.7180716722  CLST         267          1.0000000000
       801       267  TIP3  H2            1.9881575428        1.9348958906       -4.8543397046  CLST         267          1.0000000000
       802       268  TIP3  OH2           5.0919521222       -4.4992402308       -6.8886675476  CLST         268          1.0000000000
       803       268  TIP3  H1            5.0364672630       -4.2676462302       -7.8393849385  CLST         268          1.0000000000
       804       268  TIP3  H2            4.8550574810       -5.4803860112       -7.0227598707  CLST         268          1.0000000000
       805       269  TIP3  OH2           5.5528316540       10.6511078102       -0.2068729497  CLST         269          1.0000000000
       806       269  TIP3  H1            6.4988035311       10.6777705633       -0.5556713105  CLST         269          1.0000000000
       807       269  TIP3  H2            5.6591922042       11.5974189997        0.1670410578  CLST         269          1.0000000000
       808       270  TIP3  OH2           1.2269122754        9.3482137176       -8.0139138093  CLST         270          1.0000000000
       809       270  TIP3  H1            1.2468942363        7.8495716464       -8.7484183374  CLST         270          1.0000000000
       810       270  TIP3  H2            0.4615205237        8.6628907876       -6.7617496942  CLST         270          1.0000000000
       811       271  TIP3  OH2          -6.4113143136       -8.9862062550       -2.2983923149  CLST         271          1.0000000000
       812       271  TIP3  H1           -5.6508350898       -8.9455700751       -1.7058907004  CLST         271          1.0000000000
       813       271  TIP3  H2           -7.0619571783       -9.0606092907       -1.5034052089  CLST         271          1.0000000000
       814       272  TIP3  OH2           9.5122894524       -8.3291054877        5.7523057797  CLST         272          1.0000000000
       815       272  TIP3  H1            8.5184210028       -8.2194198100        5.7948279704  CLST         272          1.0000000000
       816       272  TIP3  H2            9.6461331947       -7.8420757159        4.8849258371  CLST         272          1.0000000000
       817       273  TIP3  OH2         -14.0051929133        9.3913700648        3.1059523210  CLST         273          1.0000000000
       818       273  TIP3  H1          -14.2297428221        9.8811203978        3.9332352587  CLST         273          1.0000000000
       819       273  TIP3  H2          -13.6648845683        8.6434320167        3.6439817758  CLST         273          1.0000000000
       820       274  TIP3  OH2           4.1935762588       13.0294851292       -4.0973401473  CLST         274          1.0000000000
       821       274  TIP3  H1            3.5667693035       11.8750649002       -2.5895149212  CLST         274          1.0000000000
       822       274  TIP3  H2            4.4347792337       13.9269142535       -3.6137381060  CLST         274          1.0000000000
       823       275  TIP3  OH2           8.8025092128      -11.1309441411        5.8203271075  CLST         275          1.0000000000
       824       275  TIP3  H1            9.2782306493      -10.3011312838        5.9241947501  CLST         275          1.0000000000
       825       275  TIP3  H2            9.4154316524      -11.9069703334        5.5605377991  CLST         275          1.0000000000
       826       276  TIP3  OH2          -0.3443107191       -5.9350482304        1.5011157935  CLST         276          1.0000000000
       827       276  TIP3  H1           -0.9120967188       -6.3349545192        0.8415141325  CLST         276          1.0000000000
       828       276  TIP3  H2           -0.9398399943       -5.2593602945        1.9637618914  CLST         276          1.0000000000
       829       277  TIP3  OH2           6.5032893513        6.4940911261       -7.0463517062  CLST         277          1.0000000000
       830       277  TIP3  H1            5.9784761719        5.8257735833       -7.5500291488  CLST         277          1.0000000000
       831       277  TIP3  H2            6.4672201704        7.3217771627       -7.5523831440  CLST         277          1.0000000000
       832       278  TIP3  OH2          -0.5897438020       -7.5366225361        3.5329398400  CLST         278          1.0000000000
       833       278  TIP3  H1           -0.4265125072       -6.8724422489        2.7568561225  CLST         278          1.0000000000
       834       278  TIP3  H2           -0.6056118416       -6.8227809108        4.2357676395  CLST         278          1.0000000000
       835       279  TIP3  OH2         -13.6021172882        6.4179428787        0.4734570401  CLST         279          1.0000000000
       836       279  TIP3  H1          -13.8531538167        5.4483708363        0.3645005179  CLST         279          1.0000000000
       837       279  TIP3  H2          -12.6552149235        6.3223621292        0.6842154882  CLST         279          1.0000000000
       838       280  TIP3  OH2          -3.2960049779      -10.0975350535        5.5125818256  CLST         280          1.0000000000
       839       280  TIP3  H1           -3.2615871684       -9.2117090715        5.9391955562  CLST         280          1.0000000000
       840       280  TIP3  H2           -3.7242836018       -9.7513971082        4.7037665640  CLST         280          1.0000000000
       841       281  TIP3  OH2           8.0897535303        7.7042859144      -10.8466127029  CLST         281          1.0000000000
       842       281  TIP3  H1            8.5729970654        8.5679668908      -10.7600037804  CLST         281          1.0000000000
       843       281  TIP3  H2            7.1692007820        7.9469435707      -10.7086292019  CLST         281          1.0000000000
       844       282  TIP3  OH2          -7.7048207019      -11.8241257598       10.0157804399  CLST         282          1.0000000000
       845       282  TIP3  H1           -8.5529117809      -11.7320962910        9.6181670454  CLST         282          1.0000000000
       846       282  TIP3  H2           -7.2213709690      -12.2759619969        9.2459097624  CLST         282          1.0000000000
       847       283  TIP3  OH2           4.5045135666        8.6002582770       -4.5428259179  CLST         283          1.0000000000
       848       283  TIP3  H1            4.7168293926        9.5446896899       -4.7830031128  CLST         283          1.0000000000
       849       283  TIP3  H2            3.9650442135        8.6303639556       -3.7122171096  CLST         283          1.0000000000
       850       284  TIP3  OH2          11.8310031859        8.3426173463       -1.4422791092  CLST         284          1.0000000000
       851       284  TIP3  H1           11.6353808732        7.5628774212       -2.0255483673  CLST         284          1.0000000000
       852       284  TIP3  H2           11.0421528040        8.8805618026       -1.5853613963  CLST         284          1.0000000000
       853       285  TIP3  OH2          -5.4078032037        2.0412232561        8.8222384335  CLST         285          1.0000000000
       854       285  TIP3  H1           -4.6570519715        1.6336931643        8.2928847446  CLST         285          1.0000000000
       855       285  TIP3  H2           -4.8643722777        2.7191964892        9.2891307412  CLST         285          1.0000000000
       856       286  TIP3  OH2           2.9015827846        5.8424581703       -0.7070373775  CLST         286          1.0000000000
       857       286  TIP3  H1            2.1984074367        5.7413995501       -0.0215048128  CLST         286          1.0000000000
       858       286  TIP3  H2            3.6716398150        5.9330258671       -0.0657937271  CLST         286          1.0000000000
       859       287  TIP3  OH2          -4.3081102478        9.2832518725       11.1588414258  CLST         287          1.0000000000
       860       287  TIP3  H1           -4.6404270937       10.0356355833       11.7450722025  CLST         287          1.0000000000
       861       287  TIP3  H2           -5.1619709002        8.9146082706       10.9001614633  CLST         287          1.0000000000
       862       288  TIP3  OH2           5.5299494590        3.4798321639       -9.5121081257  CLST         288          1.0000000000
       863       288  TIP3  H1            5.2999674534        2.9028635697      -10.1824130607  CLST         288          1.0000000000
       864       288  TIP3  H2            6.3243043321        3.9939407694       -9.8934614267  CLST         288          1.0000000000
       865       289  TIP3  OH2          -7.0625757832       -5.0331354386       -8.3493767998  CLST         289          1.0000000000
       866       289  TIP3  H1           -7.9008673502       -4.3438662062       -8.3981411545  CLST         289          1.0000000000
       867       289  TIP3  H2           -6.3819283518       -4.4416788516       -8.0508422809  CLST         289          1.0000000000
       868       290  TIP3  OH2           2.0224773772      -11.9601068041       11.1389877865  CLST         290          1.0000000000
       869       290  TIP3  H1            2.3540050410      -12.8323897978       10.9207118406  CLST         290          1.0000000000
       870       290  TIP3  H2            2.5718594668      -11.7209461030       11.8999248527  CLST         290          1.0000000000
       871       291  TIP3  OH2         -10.3166558864       -3.5862240712        2.9158938447  CLST         291          1.0000000000
       872       291  TIP3  H1          -11.0768592485       -4.1291048499        3.2699766627  CLST         291          1.0000000000
       873       291  TIP3  H2          -10.3526789878       -3.7757417114        1.9744500218  CLST         291          1.0000000000
       874       292  TIP3  OH2          12.0395673111        3.4451853160       -4.6571435118  CLST         292          1.0000000000
       875       292  TIP3  H1           11.0862385163        3.2992162480       -4.4461018517  CLST         292          1.0000000000
       876       292  TIP3  H2           11.9650016163        3.9216705522       -5.4766029363  CLST         292          1.0000000000
       877       293  TIP3  OH2           9.0544333648       10.8178151521       11.0934837137  CLST         293          1.0000000000
       878       293  TIP3  H1            8.6329927281       11.2087611897       11.8030466026  CLST         293          1.0000000000
       879       293  TIP3  H2            9.0199954090       11.4178329138       10.2892789107  CLST         293          1.0000000000
       880       294  TIP3  OH2           4.2299239156        4.5848931273       -2.4495184991  CLST         294          1.0000000000
       881       294  TIP3  H1            3.6226178594        5.1039837182       -1.8261369803  CLST         294          1.0000000000
       882       294  TIP3  H2            4.1501261501        5.1190381661       -3.2812463216  CLST         294          1.0000000000
       883       295  TIP3  OH2          -2.3885362594      -13.4927660032       -8.7535785402  CLST         295          1.0000000000
       884       295  TIP3  H1           -3.0839638941      -13.2388085762       -8.0804426995  CLST         295          1.0000000000
       885       295  TIP3  H2           -1.6179119715      -13.4655453895       -8.1655021017  CLST         295          1.0000000000
       886       296  TIP3  OH2          -1.5621311283       11.4901245915      -13.0407105189  CLST         296          1.0000000000
       887       296  TIP3  H1           -0.6559745743       11.1498764528      -13.2143202652  CLST         296          1.0000000000
       888       296  TIP3  H2           -1.6109072861       11.2545199730      -12.0722262877  CLST         296          1.0000000000
       889       297  TIP3  OH2           8.1318089900       -0.4438162689       11.3748627384  CLST         297          1.0000000000
       890       297  TIP3  H1            8.5456262928       -1.2996778102       11.1059776646  CLST         297          1.0000000000
       891       297  TIP3  H2            7.2374161685       -0.8561925010       11.6230852676  CLST         297          1.0000000000
       892       298  TIP3  OH2           0.9029460655       -1.3412869002       -7.3539789819  CLST         298          1.0000000000
       893       298  TIP3  H1            1.2396673286       -0.6742840809       -8.0185072291  CLST         298          1.0000000000
       894       298  TIP3  H2            0.6659244809       -2.0605406601       -7.9929069281  CLST         298          1.0000000000
       895       299  TIP3  OH2           2.9567720427       10.1083024634       12.7855555385  CLST         299          1.0000000000
       896       299  TIP3  H1            2.2530168100       10.7109927218       12.4235501071  CLST         299          1.0000000000
       897       299  TIP3  H2            2.2576950127        9.4489829405       12.9274124582  CLST         299          1.0000000000
       898       300  TIP3  OH2         -10.8049272390        5.2122623591       -3.8007779300  CLST         300          1.0000000000
       899       300  TIP3  H1          -10.7950173027        5.7717611152       -4.6341389620  CLST         300          1.0000000000
       900       300  TIP3  H2          -10.8633389345        6.0098173843       -3.1988036325  CLST         300          1.0000000000
       901       301  TIP3  OH2           9.6445121104       -8.2858187247       11.1997767535  CLST         301          1.0000000000
       902       301  TIP3  H1            9.3487596519       -7.9835504069       12.1431904368  CLST         301          1.0000000000
       903       301  TIP3  H2            9.5434577826       -9.3455478009       11.3382859437  CLST         301          1.0000000000
       904       302  TIP3  OH2           7.9366888493       12.8026218535        5.4591172430  CLST         302          1.0000000000
       905       302  TIP3  H1            7.6434091713       13.3012094047        4.6246467162  CLST         302          1.0000000000
       906       302  TIP3  H2            7.0998800376       12.1943796576        5.3814664591  CLST         302          1.0000000000
       907       303  TIP3  OH2         -10.9777690804        1.2237413806       -1.9129913792  CLST         303          1.0000000000
       908       303  TIP3  H1           -9.9660760618        1.2774602386       -1.7413828013  CLST         303          1.0000000000
       909       303  TIP3  H2          -10.9971353428        0.5889205452       -2.6842348244  CLST         303          1.0000000000
       910       304  TIP3  OH2          -7.9607378815        1.2132047601      -14.8704581029  CLST         304          1.0000000000
       911       304  TIP3  H1           -7.5191764036        0.3339358815      -14.6670028335  CLST         304          1.0000000000
       912       304  TIP3  H2           -7.6535289793        1.6941189510      -15.6139391958  CLST         304          1.0000000000
       913       305  TIP3  OH2           3.3488261751       -3.8486587687       13.8279883112  CLST         305          1.0000000000
       914       305  TIP3  H1            4.0922376539       -4.2758085437       13.5116414617  CLST         305          1.0000000000
       915       305  TIP3  H2            3.7156093358       -3.0317457580       14.1727021545  CLST         305          1.0000000000
       916       306  TIP3  OH2           8.8310860189      -12.0167099716      -11.3755523202  CLST         306          1.0000000000
       917       306  TIP3  H1            9.5958850957      -11.6439903732      -11.9727345967  CLST         306          1.0000000000
       918       306  TIP3  H2            9.1730943458      -12.7370767571      -10.9769657243  CLST         306          1.0000000000
       919       307  TIP3  OH2           9.2175427802        7.8886136071       -7.6453184976  CLST         307          1.0000000000
       920       307  TIP3  H1            8.4487395797        8.4590015062       -7.8324680240  CLST         307          1.0000000000
       921       307  TIP3  H2            9.4210781169        8.1012998719       -6.7111061325  CLST         307          1.0000000000
       922       308  TIP3  OH2         -10.7398096270       -4.6573675863        8.8730153596  CLST         308          1.0000000000
       923       308  TIP3  H1          -10.7600315120       -5.4349883649        9.4857305125  CLST         308          1.0000000000
       924       308  TIP3  H2           -9.7723396305       -4.3730325121        9.0004766898  CLST         308          1.0000000000
       925       309  TIP3  OH2          -1.8679965162       -0.4035664790        5.6219233758  CLST         309          1.0000000000
       926       309  TIP3  H1           -2.6478514290       -0.8427101417        5.1915463941  CLST         309          1.0000000000
       927       309  TIP3  H2           -1.6538744318       -1.1926346642        6.1776462667  CLST         309          1.0000000000
       928       310  TIP3  OH2          -5.0286755820       -0.5014890294        7.2496729287  CLST         310          1.0000000000
       929       310  TIP3  H1           -4.2715107362        0.1675286057        7.3457335171  CLST         310          1.0000000000
       930       310  TIP3  H2           -4.9500589398       -1.0095062268        8.1118951711  CLST         310          1.0000000000
       931       311  TIP3  OH2          -7.1774869133        8.4207442113      -12.2678824605  CLST         311          1.0000000000
       932       311  TIP3  H1           -6.4919727041        7.8490105405      -12.7089207700  CLST         311          1.0000000000
       933       311  TIP3  H2           -7.2677087697        7.9026878694      -11.4716756201  CLST         311          1.0000000000
       934       312  TIP3  OH2           6.4125226965       -0.9157200531       -6.3059187941  CLST         312          1.0000000000
       935       312  TIP3  H1            6.3669865555       -0.2975591365       -5.5282342721  CLST         312          1.0000000000
       936       312  TIP3  H2            6.1940073052       -1.7089049206       -5.7800977658  CLST         312          1.0000000000
       937       313  TIP3  OH2          -8.9144376758      -10.7688032738        7.2149516461  CLST         313          1.0000000000
       938       313  TIP3  H1           -8.2695050776      -10.0167087367        7.1016551601  CLST         313          1.0000000000
       939       313  TIP3  H2           -9.3456256263      -10.7038390832        6.2867372321  CLST         313          1.0000000000
       940       314  TIP3  OH2          -1.3384773094      -12.1313672307      -10.7213713475  CLST         314          1.0000000000
       941       314  TIP3  H1           -1.2974091803      -11.3748041955      -10.0632409711  CLST         314          1.0000000000
       942       314  TIP3  H2           -1.8586970530      -12.6919587638      -10.0174702589  CLST         314          1.0000000000
       943       315  TIP3  OH2          -1.4694445696       -0.7060564280       -6.3257476760  CLST         315          1.0000000000
       944       315  TIP3  H1           -0.5991031210       -0.9699718017       -6.6567651362  CLST         315          1.0000000000
       945       315  TIP3  H2           -1.1687321789       -0.1533562377       -5.5393096350  CLST         315          1.0000000000
       946       316  TIP3  OH2         -13.3447059643       -3.9489913001       -5.4510085642  CLST         316          1.0000000000
       947       316  TIP3  H1          -12.8120773267       -4.2715586579       -6.2166541336  CLST         316          1.0000000000
       948       316  TIP3  H2          -13.0881673650       -3.0213458674       -5.4454128415  CLST         316          1.0000000000
       949       317  TIP3  OH2          -6.1526683785       -0.0855887198       -3.8591669415  CLST         317          1.0000000000
       950       317  TIP3  H1           -5.3220209969       -0.0357091880       -3.2566208022  CLST         317          1.0000000000
       951       317  TIP3  H2           -6.7457037474       -0.1383029449       -3.0694771140  CLST         317          1.0000000000
       952       318  TIP3  OH2          -4.0052324132       -9.5295845408       -9.3821602876  CLST         318          1.0000000000
       953       318  TIP3  H1           -4.1674625200       -9.8398130733       -8.4328082199  CLST         318          1.0000000000
       954       318  TIP3  H2           -3.0403493236       -9.5007652052       -9.3518020390  CLST         318          1.0000000000
       955       319  TIP3  OH2           5.7569076347       10.6669063347        8.6594169568  CLST         319          1.0000000000
       956       319  TIP3  H1            6.4541199811       10.3034722303        8.0317443020  CLST         319          1.0000000000
       957       319  TIP3  H2            6.2462544088       11.4498573487        8.8739772947  CLST         319          1.0000000000
       958       320  TIP3  OH2         -10.6873520779        0.9489845053      -14.4457092069  CLST         320          1.0000000000
       959       320  TIP3  H1           -9.7331959825        0.9824428459      -14.7032213613  CLST         320          1.0000000000
       960       320  TIP3  H2          -10.5490998329        0.0238657659      -14.1007859253  CLST         320          1.0000000000
       961       321  TIP3  OH2         -10.0307568644       10.2880554697       -9.8472383714  CLST         321          1.0000000000
       962       321  TIP3  H1          -10.8283483855       10.2594910797       -9.6948412870  CLST         321          1.0000000000
       963       321  TIP3  H2          -10.0010714555       10.2271824956      -11.1172770113  CLST         321          1.0000000000
       964       322  TIP3  OH2         -12.7291778479       -1.6772710137       -2.4709561857  CLST         322          1.0000000000
       965       322  TIP3  H1          -12.2828446318       -1.2162691051       -3.2524774599  CLST         322          1.0000000000
       966       322  TIP3  H2          -11.8506183128       -1.6209660367       -1.9713894231  CLST         322          1.0000000000
       967       323  TIP3  OH2          -1.1243831991        3.9714227424        4.4636665421  CLST         323          1.0000000000
       968       323  TIP3  H1           -0.6286743218        3.1206111370        4.5132349684  CLST         323          1.0000000000
       969       323  TIP3  H2           -1.0991668413        4.2008467888        3.5201268644  CLST         323          1.0000000000
       970       324  TIP3  OH2         -10.9138816952        6.2130399238        1.4747877036  CLST         324          1.0000000000
       971       324  TIP3  H1          -11.1916489209        5.6757604427        2.2657373154  CLST         324          1.0000000000
       972       324  TIP3  H2          -10.2194637364        6.7103220573        2.0210646560  CLST         324          1.0000000000
       973       325  TIP3  OH2          -4.6225286953        0.8110076267        3.6449713468  CLST         325          1.0000000000
       974       325  TIP3  H1           -5.6216883728        0.8666042356        3.6075543187  CLST         325          1.0000000000
       975       325  TIP3  H2           -4.3838555703        1.7276675444        3.7071002687  CLST         325          1.0000000000
       976       326  TIP3  OH2           9.0450469476        8.6748801389       -2.8318441510  CLST         326          1.0000000000
       977       326  TIP3  H1            9.0703644277        7.9651322405       -2.1607041243  CLST         326          1.0000000000
       978       326  TIP3  H2            8.2479220885        8.3688261154       -3.3525524125  CLST         326          1.0000000000
       979       327  TIP3  OH2          10.2535477908       -3.6707324594      -13.0823874291  CLST         327          1.0000000000
       980       327  TIP3  H1           10.3494238567       -3.4501095437      -13.9133184803  CLST         327          1.0000000000
       981       327  TIP3  H2           10.1251806324       -2.9244524332      -12.3813716143  CLST         327          1.0000000000
       982       328  TIP3  OH2           2.2229182024        7.0128950000       -9.7528157296  CLST         328          1.0000000000
       983       328  TIP3  H1            2.5215322387        6.1660898532       -9.3577964923  CLST         328          1.0000000000
       984       328  TIP3  H2            3.0533285189        7.4731008916       -9.4698231560  CLST         328          1.0000000000
       985       329  TIP3  OH2           1.4053541110      -11.6254432599       -2.3030367886  CLST         329          1.0000000000
       986       329  TIP3  H1            1.4883543326      -10.6118337380       -2.4739034993  CLST         329          1.0000000000
       987       329  TIP3  H2            2.2399273964      -11.6048023469       -1.7480185815  CLST         329          1.0000000000
       988       330  TIP3  OH2          -9.3334596848       -0.9815106857        3.3217787591  CLST         330          1.0000000000
       989       330  TIP3  H1           -9.5965364300       -1.9450603296        3.1933585859  CLST         330          1.0000000000
       990       330  TIP3  H2          -10.1947885907       -0.7694221612        3.8094997666  CLST         330          1.0000000000
       991       331  TIP3  OH2          12.2080700305        9.7005362994       -9.1898658187  CLST         331          1.0000000000
       992       331  TIP3  H1           13.0036907026        9.6010428061       -9.5838361140  CLST         331          1.0000000000
       993       331  TIP3  H2           11.9880875825        8.6806205687       -9.0025726521  CLST         331          1.0000000000
       994       332  TIP3  OH2          11.4535637899       -1.3083495123       -4.5298262557  CLST         332          1.0000000000
       995       332  TIP3  H1           12.3291112135       -1.7188478525       -4.6934048403  CLST         332          1.0000000000
       996       332  TIP3  H2           11.7931102347       -0.5126962768       -4.1095733569  CLST         332          1.0000000000
       997       333  TIP3  OH2          10.6828262807      -14.0849594883        8.0126304369  CLST         333          1.0000000000
       998       333  TIP3  H1            9.7212343943      -13.8727576069        8.2070221710  CLST         333          1.0000000000
       999       333  TIP3  H2           10.5828610721      -13.8936927961        7.0409567724  CLST         333          1.0000000000
      1000       334  TIP3  OH2         -10.7460743154       -9.5987624492        9.0663886483  CLST         334          1.0000000000
      1001       334  TIP3  H1          -11.5302533058      -10.0849055189        8.6177655099  CLST         334          1.0000000000
      1002       334  TIP3  H2          -10.0367922866       -9.9575518591        8.4690111940  CLST         334          1.0000000000
      1003       335  TIP3  OH2           6.8396567555      -10.0801317607        1.4170851029  CLST         335          1.0000000000
      1004       335  TIP3  H1            6.8036144255      -10.1251894457        2.3773359728  CLST         335          1.0000000000
      1005       335  TIP3  H2            5.8493872072      -10.1194575488        1.2339485473  CLST         335          1.0000000000
      1006       336  TIP3  OH2          -9.1241455764       -3.6491164795       -3.5067337874  CLST         336          1.0000000000
      1007       336  TIP3  H1           -9.4952704981       -4.4834233913       -3.8821375997  CLST         336          1.0000000000
      1008       336  TIP3  H2           -9.2434998846       -3.1496489644       -4.3380263246  CLST         336          1.0000000000
      1009       337  TIP3  OH2          -1.2809083788       -4.9106362176        8.1944684334  CLST         337          1.0000000000
      1010       337  TIP3  H1           -1.1505377254       -4.5103661333        9.1183924420  CLST         337          1.0000000000
      1011       337  TIP3  H2           -1.8233275281       -4.0814584111        7.9598085514  CLST         337          1.0000000000
      1012       338  TIP3  OH2          -0.5845935824        2.6795929674       10.6878748891  CLST         338          1.0000000000
      1013       338  TIP3  H1           -0.5755785177        2.4107965958        9.6944626628  CLST         338          1.0000000000
      1014       338  TIP3  H2           -0.1488469615        1.8708982460       10.9633931332  CLST         338          1.0000000000
      1015       339  TIP3  OH2           7.7886037426        7.9298353591        2.7996155073  CLST         339          1.0000000000
      1016       339  TIP3  H1            7.4076460768        8.5968716716        3.4312544584  CLST         339          1.0000000000
      1017       339  TIP3  H2            7.1732278651        7.6886668393        2.0831125065  CLST         339          1.0000000000
      1018       340  TIP3  OH2          -4.6092093654      -11.7047205030      -11.2560445632  CLST         340          1.0000000000
      1019       340  TIP3  H1           -4.4258132124      -10.9332948645      -10.6487307133  CLST         340          1.0000000000
      1020       340  TIP3  H2           -3.9740177662      -12.3682004934      -11.0078535480  CLST         340          1.0000000000
      1021       341  TIP3  OH2          -6.7567345343        4.7490332503        9.3209213525  CLST         341          1.0000000000
      1022       341  TIP3  H1           -5.8104324114        4.6189074610        9.5480858489  CLST         341          1.0000000000
      1023       341  TIP3  H2           -7.1222975293        3.8933395887        9.5749923315  CLST         341          1.0000000000
      1024       342  TIP3  OH2          -4.5040853054      -10.9624243554       13.8763142816  CLST         342          1.0000000000
      1025       342  TIP3  H1           -5.2886435424      -10.8992285992       13.2616149410  CLST         342          1.0000000000
      1026       342  TIP3  H2           -4.6420352704      -10.8874431449       14.7190422036  CLST         342          1.0000000000
      1027       343  TIP3  OH2           1.3463667856       -9.0041316737       -9.8001041054  CLST         343          1.0000000000
      1028       343  TIP3  H1            1.5385457630       -8.0824233562      -10.1825135569  CLST         343          1.0000000000
      1029       343  TIP3  H2            1.5665013375       -9.6082379010      -10.5338313516  CLST         343          1.0000000000
      1030       344  TIP3  OH2           5.4927952404       -4.0507833807        6.4262324210  CLST         344          1.0000000000
      1031       344  TIP3  H1            4.8311518200       -4.5365911176        7.0116916750  CLST         344          1.0000000000
      1032       344  TIP3  H2            6.0129376629       -4.7699182820        5.9588779252  CLST         344          1.0000000000
      1033       345  TIP3  OH2          13.1651522678        7.1099160353        8.8989963292  CLST         345          1.0000000000
      1034       345  TIP3  H1           12.4923457647        6.4448670863        8.6796832650  CLST         345          1.0000000000
      1035       345  TIP3  H2           12.6278318737        7.3953418762        9.7063616549  CLST         345          1.0000000000
      1036       346  TIP3  OH2           9.4454897028        9.3650518432        0.9319822634  CLST         346          1.0000000000
      1037       346  TIP3  H1            9.8282102480       10.0147408605        1.5411310460  CLST         346          1.0000000000
      1038       346  TIP3  H2            8.8824117478        8.7416597041        1.4567063189  CLST         346          1.0000000000
      1039       347  TIP3  OH2          -5.0553424436        2.8468488309       -9.6513298473  CLST         347          1.0000000000
      1040       347  TIP3  H1           -5.8139915848        3.0252280665       -9.0354506751  CLST         347          1.0000000000
      1041       347  TIP3  H2           -4.4177209206        2.5079283722       -9.0118423580  CLST         347          1.0000000000
      1042       348  TIP3  OH2          -1.2930772377        6.1752879407        5.7718376590  CLST         348          1.0000000000
      1043       348  TIP3  H1           -1.4627445911        5.2546022294        5.3913408828  CLST         348          1.0000000000
      1044       348  TIP3  H2           -0.5641380020        6.3835368839        5.1039298495  CLST         348          1.0000000000
      1045       349  TIP3  OH2          -4.2236081401        5.1532510657       -2.4903367909  CLST         349          1.0000000000
      1046       349  TIP3  H1           -3.8573065652        4.5060796263       -3.1434684036  CLST         349          1.0000000000
      1047       349  TIP3  H2           -3.5434110825        5.8522622161       -2.6932162191  CLST         349          1.0000000000
      1048       350  TIP3  OH2          -2.6394989400        8.9027839377        5.3341814046  CLST         350          1.0000000000
      1049       350  TIP3  H1           -3.0740897846        8.6477928570        4.4847885695  CLST         350          1.0000000000
      1050       350  TIP3  H2           -2.3816123053        7.9890621191        5.5713921115  CLST         350          1.0000000000
      1051       351  TIP3  OH2           4.8765492289       -7.5737982558       -7.7116589944  CLST         351          1.0000000000
      1052       351  TIP3  H1            4.1812630436       -8.2079077232       -7.5342424286  CLST         351          1.0000000000
      1053       351  TIP3  H2            4.8343393138       -7.3632263886       -8.6959765668  CLST         351          1.0000000000
      1054       352  TIP3  OH2         -10.4139629227      -10.9698825600        1.6433904547  CLST         352          1.0000000000
      1055       352  TIP3  H1           -9.5350202010      -10.6566524595        1.4145729351  CLST         352          1.0000000000
      1056       352  TIP3  H2          -10.9762337419      -10.2498355508        1.2097140893  CLST         352          1.0000000000
      1057       353  TIP3  OH2          10.8913955847       -8.1632633626       -8.7262670509  CLST         353          1.0000000000
      1058       353  TIP3  H1            9.9692894781       -8.5487439850       -8.7304113033  CLST         353          1.0000000000
      1059       353  TIP3  H2           11.3078743297       -8.2738273832       -7.9355791711  CLST         353          1.0000000000
      1060       354  TIP3  OH2           6.9280457514      -10.5900808695        4.0498748384  CLST         354          1.0000000000
      1061       354  TIP3  H1            7.6712091281      -10.9112500268        4.6153472854  CLST         354          1.0000000000
      1062       354  TIP3  H2            6.7254196688       -9.8619112778        4.7511920432  CLST         354          1.0000000000
      1063       355  TIP3  OH2          -7.2080234322        8.9986129039       -8.8169499280  CLST         355          1.0000000000
      1064       355  TIP3  H1           -6.8453491297        9.9000413695       -8.6630611846  CLST         355          1.0000000000
      1065       355  TIP3  H2           -8.1083884969        9.2772045204       -9.1125865734  CLST         355          1.0000000000
      1066       356  TIP3  OH2          12.5546405843        0.9909746173       -2.0507292798  CLST         356          1.0000000000
      1067       356  TIP3  H1           11.5647100351        0.8797615634       -2.1295303520  CLST         356          1.0000000000
      1068       356  TIP3  H2           12.8042936869        0.8899624759       -1.1539043926  CLST         356          1.0000000000
      1069       357  TIP3  OH2          -0.5859526640       -0.5183966938       -1.9404692163  CLST         357          1.0000000000
      1070       357  TIP3  H1            0.3101705937       -0.9657382057       -2.0848970757  CLST         357          1.0000000000
      1071       357  TIP3  H2           -0.6657902286       -0.3445093258       -2.9227246442  CLST         357          1.0000000000
      1072       358  TIP3  OH2          -5.6319144198        7.2093516324       -7.5521111557  CLST         358          1.0000000000
      1073       358  TIP3  H1           -6.0538639620        7.9657945182       -8.0876448780  CLST         358          1.0000000000
      1074       358  TIP3  H2           -6.4631487872        6.7513112701       -7.2159082832  CLST         358          1.0000000000
      1075       359  TIP3  OH2          -5.0337807364       12.2114044460        6.1495038093  CLST         359          1.0000000000
      1076       359  TIP3  H1           -5.3379694522       12.1452185837        5.2366505280  CLST         359          1.0000000000
      1077       359  TIP3  H2           -4.0801221613       12.3651838401        6.0633057430  CLST         359          1.0000000000
      1078       360  TIP3  OH2          -6.8521006726        5.7160596238       -3.3508387948  CLST         360          1.0000000000
      1079       360  TIP3  H1           -6.9987933219        6.1649442155       -2.5018143914  CLST         360          1.0000000000
      1080       360  TIP3  H2           -5.9320793624        5.3765261777       -3.1614077536  CLST         360          1.0000000000
      1081       361  TIP3  OH2          -1.5745839190       -1.0091616123        9.9208324363  CLST         361          1.0000000000
      1082       361  TIP3  H1           -1.5717712620       -0.3866414165       10.7302306611  CLST         361          1.0000000000
      1083       361  TIP3  H2           -1.6536565761       -1.8476456872       10.4429201860  CLST         361          1.0000000000
      1084       362  TIP3  OH2         -10.5547559307        2.8604983117        0.5680304312  CLST         362          1.0000000000
      1085       362  TIP3  H1          -10.4150781592        3.4542867438       -0.1975327386  CLST         362          1.0000000000
      1086       362  TIP3  H2          -11.0972176248        2.1930515871        0.0924149954  CLST         362          1.0000000000
      1087       363  TIP3  OH2          10.5782445825        2.5068692725       10.1804918192  CLST         363          1.0000000000
      1088       363  TIP3  H1           10.8866185021        1.5477783276       10.0790635084  CLST         363          1.0000000000
      1089       363  TIP3  H2           11.0582190612        3.0604444696       10.6906151102  CLST         363          1.0000000000
      1090       364  TIP3  OH2           7.6599309012       -5.5893657284       -6.1610895759  CLST         364          1.0000000000
      1091       364  TIP3  H1            6.9484550276       -4.9997972777       -6.5562911477  CLST         364          1.0000000000
      1092       364  TIP3  H2            8.1775495105       -5.7612044314       -7.0036493831  CLST         364          1.0000000000
      1093       365  TIP3  OH2          -6.0729840040       -6.8188485910        2.6864337054  CLST         365          1.0000000000
      1094       365  TIP3  H1           -6.7118255417       -6.2317846865        2.2022806219  CLST         365          1.0000000000
      1095       365  TIP3  H2           -6.8585554385       -7.3411855750        3.0763948339  CLST         365          1.0000000000
      1096       366  TIP3  OH2           1.7727525861       -1.6444505498       -2.9887193540  CLST         366          1.0000000000
      1097       366  TIP3  H1            2.7040395055       -1.6340657232       -2.6176188401  CLST         366          1.0000000000
      1098       366  TIP3  H2            2.0296498662       -1.2167792711       -3.8368062485  CLST         366          1.0000000000
      1099       367  TIP3  OH2          -5.2393013108       11.6688771584       12.3533816728  CLST         367          1.0000000000
      1100       367  TIP3  H1           -6.1015651459       11.8303743536       11.7599551041  CLST         367          1.0000000000
      1101       367  TIP3  H2           -5.3667707045       12.3811812701       12.9709460329  CLST         367          1.0000000000
      1102       368  TIP3  OH2          -2.6567346103        6.5510284279        1.1344264537  CLST         368          1.0000000000
      1103       368  TIP3  H1           -2.9125877196        7.3952988182        0.6622729067  CLST         368          1.0000000000
      1104       368  TIP3  H2           -3.0939823654        6.9255653453        1.9886335650  CLST         368          1.0000000000
      1105       369  TIP3  OH2         -11.5969428555       -1.7398544674       -6.4728257113  CLST         369          1.0000000000
      1106       369  TIP3  H1          -11.0237728360       -2.5331405687       -6.3655142137  CLST         369          1.0000000000
      1107       369  TIP3  H2          -11.8970022951       -1.9892215788       -7.3979788703  CLST         369          1.0000000000
      1108       370  TIP3  OH2         -12.1635517540        5.5360075312      -11.5590004927  CLST         370          1.0000000000
      1109       370  TIP3  H1          -12.3966872308        4.7292600504      -12.1350553518  CLST         370          1.0000000000
      1110       370  TIP3  H2          -12.9264106258        5.6454575029      -11.0331763946  CLST         370          1.0000000000
      1111       371  TIP3  OH2           2.1839254004        7.8174621813        5.7561154150  CLST         371          1.0000000000
      1112       371  TIP3  H1            2.1777936244        7.6554228120        6.7416065207  CLST         371          1.0000000000
      1113       371  TIP3  H2            3.1111284756        8.0080939092        5.5790098100  CLST         371          1.0000000000
      1114       372  TIP3  OH2           8.0574356201       -7.4529577319        9.0892444206  CLST         372          1.0000000000
      1115       372  TIP3  H1            8.8307021147       -7.4090051539        8.4959550819  CLST         372          1.0000000000
      1116       372  TIP3  H2            8.5929655379       -7.6822389996        9.9118385282  CLST         372          1.0000000000
      1117       373  TIP3  OH2          11.1219416946       -0.2987024438        6.4226997220  CLST         373          1.0000000000
      1118       373  TIP3  H1           11.2617708001        0.4662440706        5.7223740236  CLST         373          1.0000000000
      1119       373  TIP3  H2           10.2817633468       -0.4443652307        5.9299642529  CLST         373          1.0000000000
      1120       374  TIP3  OH2          -9.2661451533        4.7870812488      -12.1453691389  CLST         374          1.0000000000
      1121       374  TIP3  H1           -9.6358051664        5.5409051161      -12.6382299474  CLST         374          1.0000000000
      1122       374  TIP3  H2           -9.9549457048        4.7977524028      -11.4742147697  CLST         374          1.0000000000
      1123       375  TIP3  OH2           9.7741561347       -5.3063435133       -2.7575425009  CLST         375          1.0000000000
      1124       375  TIP3  H1           10.1250101676       -4.8572098046       -3.5632618293  CLST         375          1.0000000000
      1125       375  TIP3  H2           10.1723139258       -6.2015752643       -2.9039670824  CLST         375          1.0000000000
      1126       376  TIP3  OH2          -2.2909715457      -11.1699509310       12.2018426661  CLST         376          1.0000000000
      1127       376  TIP3  H1           -2.8498819124      -10.9534740719       12.9863576810  CLST         376          1.0000000000
      1128       376  TIP3  H2           -3.0242703388      -11.3539292771       11.5517659735  CLST         376          1.0000000000
      1129       377  TIP3  OH2         -10.1241205951       12.9651602894       10.4884334980  CLST         377          1.0000000000
      1130       377  TIP3  H1           -9.2076273769       12.8165330035       10.8062880026  CLST         377          1.0000000000
      1131       377  TIP3  H2           -9.9693391702       13.0059445312        9.5305650409  CLST         377          1.0000000000
      1132       378  TIP3  OH2           2.0942301728       -7.9307917236        7.3020793709  CLST         378          1.0000000000
      1133       378  TIP3  H1            2.3038042890       -6.9877979540        7.3615445963  CLST         378          1.0000000000
      1134       378  TIP3  H2            1.1923086514       -8.0989039879        7.5618267383  CLST         378          1.0000000000
      1135       379  TIP3  OH2          -9.4966436925        9.3246733001       -1.1122870307  CLST         379          1.0000000000
      1136       379  TIP3  H1           -8.8506822033        9.6165777337       -0.4302399422  CLST         379          1.0000000000
      1137       379  TIP3  H2           -9.8296358213       10.2046981535       -1.4633071023  CLST         379          1.0000000000
      1138       380  TIP3  OH2           3.0593503552       -4.1178111916      -11.2699167172  CLST         380          1.0000000000
      1139       380  TIP3  H1            2.5738933534       -3.4711144291      -11.8443049786  CLST         380          1.0000000000
      1140       380  TIP3  H2            3.3815352708       -4.7473414320      -11.9641206157  CLST         380          1.0000000000
      1141       381  TIP3  OH2          10.1534792372        4.2608539052        3.3310760462  CLST         381          1.0000000000
      1142       381  TIP3  H1            9.3498271370        4.6461059495        3.8179008075  CLST         381          1.0000000000
      1143       381  TIP3  H2           10.8179625893        4.9290294606        3.6531470749  CLST         381          1.0000000000
      1144       382  TIP3  OH2           1.9261336600       -5.3077509689        5.6656296608  CLST         382          1.0000000000
      1145       382  TIP3  H1            2.2872330184       -4.8816209713        6.4657517713  CLST         382          1.0000000000
      1146       382  TIP3  H2            2.7124463464       -5.7794205036        5.3058531466  CLST         382          1.0000000000
      1147       383  TIP3  OH2          10.2720867583        8.7667516927        4.8495446226  CLST         383          1.0000000000
      1148       383  TIP3  H1            9.3626338359        9.0081520481        4.5883491020  CLST         383          1.0000000000
      1149       383  TIP3  H2           10.5590225091        9.7211705633        5.0258346625  CLST         383          1.0000000000
      1150       384  TIP3  OH2          -3.2510981780       -1.6870566815       -8.1844609781  CLST         384          1.0000000000
      1151       384  TIP3  H1           -2.7602268845       -2.5589218629       -8.2616473543  CLST         384          1.0000000000
      1152       384  TIP3  H2           -2.6051534555       -1.3843792762       -7.4593893561  CLST         384          1.0000000000
      1153       385  TIP3  OH2           3.6177973958      -11.6866345083       -0.8379514546  CLST         385          1.0000000000
      1154       385  TIP3  H1            4.5274798510      -12.1765695162       -0.7366169631  CLST         385          1.0000000000
      1155       385  TIP3  H2            3.8182112362      -11.0960560771       -0.0700027844  CLST         385          1.0000000000
      1156       386  TIP3  OH2          -4.2717819606        9.3082151927       -6.0724340690  CLST         386          1.0000000000
      1157       386  TIP3  H1           -4.8424065239        8.5376783666       -6.4225287752  CLST         386          1.0000000000
      1158       386  TIP3  H2           -4.0678420178        9.6617706544       -6.9765471385  CLST         386          1.0000000000
      1159       387  TIP3  OH2          -9.8095482481       10.6536671139        2.6246218454  CLST         387          1.0000000000
      1160       387  TIP3  H1          -10.7387958827       10.4736693987        2.2945798262  CLST         387          1.0000000000
      1161       387  TIP3  H2           -9.2549480386       10.3371231812        1.8830655849  CLST         387          1.0000000000
      1162       388  TIP3  OH2          -1.9138191659      -12.3889360734        6.1305178796  CLST         388          1.0000000000
      1163       388  TIP3  H1           -2.2365704864      -11.4743796703        5.8009536456  CLST         388          1.0000000000
      1164       388  TIP3  H2           -1.9407900477      -12.1839719896        7.0933006611  CLST         388          1.0000000000
      1165       389  TIP3  OH2          -8.3027819630        3.3438287954       -3.6367511287  CLST         389          1.0000000000
      1166       389  TIP3  H1           -7.9722451010        4.1960318400       -3.2601844640  CLST         389          1.0000000000
      1167       389  TIP3  H2           -9.1562548979        3.6858383900       -3.9796502884  CLST         389          1.0000000000
      1168       390  TIP3  OH2          -5.8108095213       -3.9523949921        4.5748660097  CLST         390          1.0000000000
      1169       390  TIP3  H1           -5.1928001598       -3.1726804684        4.5372001215  CLST         390          1.0000000000
      1170       390  TIP3  H2           -5.5703033639       -4.3053367857        3.7200944451  CLST         390          1.0000000000
      1171       391  TIP3  OH2          -8.7139679584       -8.8207243008       -6.1896229226  CLST         391          1.0000000000
      1172       391  TIP3  H1           -9.2594011888       -9.4293419368       -6.7284075000  CLST         391          1.0000000000
      1173       391  TIP3  H2           -7.9886909057       -9.3938239703       -5.8342845163  CLST         391          1.0000000000
      1174       392  TIP3  OH2           0.9218621572       -1.8579113762       10.2131325328  CLST         392          1.0000000000
      1175       392  TIP3  H1            0.3507544067       -2.5652508503       10.6231120921  CLST         392          1.0000000000
      1176       392  TIP3  H2            0.2811251991       -1.2266645497        9.8156931118  CLST         392          1.0000000000
      1177       393  TIP3  OH2          11.0770689369      -12.3532108808       -0.5836463531  CLST         393          1.0000000000
      1178       393  TIP3  H1           11.5192562718      -11.4326747333       -0.7533944494  CLST         393          1.0000000000
      1179       393  TIP3  H2           11.7170653116      -12.9200069468       -0.7261965449  CLST         393          1.0000000000
      1180       394  TIP3  OH2           0.4914083182       11.8800374087       -8.6445571043  CLST         394          1.0000000000
      1181       394  TIP3  H1            1.1750978984       12.3181787643       -8.0128379773  CLST         394          1.0000000000
      1182       394  TIP3  H2            0.6504882113       10.9800733063       -8.2077756568  CLST         394          1.0000000000
      1183       395  TIP3  OH2           6.8633241693        7.5773699066       -4.4012309377  CLST         395          1.0000000000
      1184       395  TIP3  H1            5.8929085168        7.9887254652       -4.5322925526  CLST         395          1.0000000000
      1185       395  TIP3  H2            6.9188792777        7.1889592166       -5.3327637545  CLST         395          1.0000000000
      1186       396  TIP3  OH2          -1.0107107704      -10.1056363778       -9.0882466848  CLST         396          1.0000000000
      1187       396  TIP3  H1           -1.1786378483       -9.9612921908       -8.0510336775  CLST         396          1.0000000000
      1188       396  TIP3  H2           -0.1284666571       -9.6376546767       -9.1164228914  CLST         396          1.0000000000
      1189       397  TIP3  OH2          11.4690401039        7.1233229215       -8.9579239856  CLST         397          1.0000000000
      1190       397  TIP3  H1           11.9557753504        6.6408514750       -8.2867381473  CLST         397          1.0000000000
      1191       397  TIP3  H2           10.5912215881        7.1776131487       -8.4619716062  CLST         397          1.0000000000
      1192       398  TIP3  OH2          10.6763869743        7.6850221760       -4.9172667425  CLST         398          1.0000000000
      1193       398  TIP3  H1           10.0533891262        8.1124322124       -4.2422041036  CLST         398          1.0000000000
      1194       398  TIP3  H2           11.1931650196        7.2126838230       -4.1959256866  CLST         398          1.0000000000
      1195       399  TIP3  OH2           1.7818878972       11.0015817014        4.8493997729  CLST         399          1.0000000000
      1196       399  TIP3  H1            0.9187662085       10.7287419532        5.2273395652  CLST         399          1.0000000000
      1197       399  TIP3  H2            2.2725057135       10.8097743630        5.7417842021  CLST         399          1.0000000000
      1198       400  TIP3  OH2           3.8922754801       -3.0375631059       -5.0013896116  CLST         400          1.0000000000
      1199       400  TIP3  H1            4.5387096322       -2.9451434293       -4.2788995238  CLST         400          1.0000000000
      1200       400  TIP3  H2            4.3922852724       -3.5505572561       -5.6736331322  CLST         400          1.0000000000
      1201       401  TIP3  OH2         -14.7907433405       10.0709024729        5.4516129449  CLST         401          1.0000000000
      1202       401  TIP3  H1          -14.1849296191       10.1043278305        6.2610909524  CLST         401          1.0000000000
      1203       401  TIP3  H2          -15.6702321412        9.9879394037        5.9204890538  CLST         401          1.0000000000
      1204       402  TIP3  OH2           1.8571602590       -1.5164946970       12.8632824157  CLST         402          1.0000000000
      1205       402  TIP3  H1            1.6742257698       -2.5053902225       13.0137666431  CLST         402          1.0000000000
      1206       402  TIP3  H2            1.6827759033       -1.6207843027       11.8879529643  CLST         402          1.0000000000
      1207       403  TIP3  OH2          -2.0988428266       -7.0101849216       -0.8421737309  CLST         403          1.0000000000
      1208       403  TIP3  H1           -2.0798011848       -6.4013931301       -1.4795778584  CLST         403          1.0000000000
      1209       403  TIP3  H2           -1.9838670138       -7.9236754543       -1.2865373478  CLST         403          1.0000000000
      1210       404  TIP3  OH2          -4.8641686578       -2.6329562519        9.1272817331  CLST         404          1.0000000000
      1211       404  TIP3  H1           -4.8852327875       -2.9500008892       10.0637368539  CLST         404          1.0000000000
      1212       404  TIP3  H2           -5.1865190548       -3.4051852782        8.5942010549  CLST         404          1.0000000000
      1213       405  TIP3  OH2         -12.0207108414        7.3167692357       11.3418068200  CLST         405          1.0000000000
      1214       405  TIP3  H1          -11.9203619799        6.4717065719       10.8349075372  CLST         405          1.0000000000
      1215       405  TIP3  H2          -12.7406533122        7.0582539717       11.8961843385  CLST         405          1.0000000000
      1216       406  TIP3  OH2           0.9878974081        7.7940311557      -12.0565378018  CLST         406          1.0000000000
      1217       406  TIP3  H1            1.1977769442        8.7441920801      -12.3049748019  CLST         406          1.0000000000
      1218       406  TIP3  H2            1.4732998936        7.6615447024      -11.2408511538  CLST         406          1.0000000000
      1219       407  TIP3  OH2          10.4754249350      -13.1662172112        5.1170281674  CLST         407          1.0000000000
      1220       407  TIP3  H1           10.6049587654      -13.1241300118        4.1530536018  CLST         407          1.0000000000
      1221       407  TIP3  H2           11.2162171134      -12.4969644702        5.3098632012  CLST         407          1.0000000000
      1222       408  TIP3  OH2          -2.9540331947      -11.5888521276        1.8812806391  CLST         408          1.0000000000
      1223       408  TIP3  H1           -2.1105054048      -11.0154055278        1.7498996237  CLST         408          1.0000000000
      1224       408  TIP3  H2           -2.3940483906      -12.3819155727        2.0687748544  CLST         408          1.0000000000
      1225       409  TIP3  OH2           1.2271246947       -9.6390717735        9.7249013943  CLST         409          1.0000000000
      1226       409  TIP3  H1            0.7272396933       -9.6358703550       10.5924749698  CLST         409          1.0000000000
      1227       409  TIP3  H2            1.8008843014      -10.3997806285        9.9865061325  CLST         409          1.0000000000
      1228       410  TIP3  OH2           9.9505005083       -7.1238368744       -5.0517538188  CLST         410          1.0000000000
      1229       410  TIP3  H1            9.1488252512       -6.8087817330       -5.5324756103  CLST         410          1.0000000000
      1230       410  TIP3  H2           10.5043603588       -6.3165940064       -5.2419770218  CLST         410          1.0000000000
      1231       411  TIP3  OH2          -9.9481185965       -2.2596741371       -1.3027555036  CLST         411          1.0000000000
      1232       411  TIP3  H1           -9.3337334829       -2.4073813156       -0.7208671681  CLST         411          1.0000000000
      1233       411  TIP3  H2           -9.5025251738       -2.5779146447       -2.1151288694  CLST         411          1.0000000000
      1234       412  TIP3  OH2           6.6909170715      -10.4406777029      -12.0206638870  CLST         412          1.0000000000
      1235       412  TIP3  H1            6.1426918678      -10.7041510276      -11.2381344971  CLST         412          1.0000000000
      1236       412  TIP3  H2            7.4808385238      -11.0507875276      -11.9276002233  CLST         412          1.0000000000
      1237       413  TIP3  OH2           6.9611168831       13.2347474613        0.3127678857  CLST         413          1.0000000000
      1238       413  TIP3  H1            7.4850234669       12.7569451745       -0.3348553824  CLST         413          1.0000000000
      1239       413  TIP3  H2            7.7126917608       13.6317844062        0.8697707084  CLST         413          1.0000000000
      1240       414  TIP3  OH2           1.4675684939       -2.3616181110      -12.4791014349  CLST         414          1.0000000000
      1241       414  TIP3  H1            0.5790938341       -1.9569152687      -12.2511816697  CLST         414          1.0000000000
      1242       414  TIP3  H2            1.3481726172       -2.7964947172      -13.2923616760  CLST         414          1.0000000000
      1243       415  TIP3  OH2           4.1382093739        5.2675110771       -8.2240174659  CLST         415          1.0000000000
      1244       415  TIP3  H1            3.4951983795        4.4860973167       -8.0879820121  CLST         415          1.0000000000
      1245       415  TIP3  H2            4.6660615685        4.7146247296       -8.9271733616  CLST         415          1.0000000000
      1246       416  TIP3  OH2           5.6040154394       12.3660356483       -7.7613080723  CLST         416          1.0000000000
      1247       416  TIP3  H1            5.4965845119       13.2301096754       -8.1474887943  CLST         416          1.0000000000
      1248       416  TIP3  H2            6.5068428256       12.1433836772       -8.2353551002  CLST         416          1.0000000000
      1249       417  TIP3  OH2          12.7090477506      -11.1838333634        2.7036463358  CLST         417          1.0000000000
      1250       417  TIP3  H1           12.0856909255      -11.8278119779        2.2913438430  CLST         417          1.0000000000
      1251       417  TIP3  H2           12.5306810378      -10.3792963811        2.2113501389  CLST         417          1.0000000000
      1252       418  TIP3  OH2          -9.1779164308       -1.7127259070        8.2885267193  CLST         418          1.0000000000
      1253       418  TIP3  H1           -8.6999461466       -1.2012810895        7.5979478256  CLST         418          1.0000000000
      1254       418  TIP3  H2           -9.3141691676       -1.0519001865        8.9884289611  CLST         418          1.0000000000
      1255       419  TIP3  OH2          14.9157475146        0.3495415142       -6.1461340265  CLST         419          1.0000000000
      1256       419  TIP3  H1           14.9650206995        0.9890282453       -5.3554679913  CLST         419          1.0000000000
      1257       419  TIP3  H2           15.4262216315        0.4778720089       -6.8335401584  CLST         419          1.0000000000
      1258       420  TIP3  OH2          -8.1437776391       -8.2089027106        3.5654007981  CLST         420          1.0000000000
      1259       420  TIP3  H1           -8.9364853397       -8.0168115808        2.9765202446  CLST         420          1.0000000000
      1260       420  TIP3  H2           -8.3736299743       -9.0953517088        3.8640573841  CLST         420          1.0000000000
      1261       421  TIP3  OH2           3.4977341723       -6.3655718496      -13.3854637159  CLST         421          1.0000000000
      1262       421  TIP3  H1            4.3779448211       -6.7940725031      -13.2665350065  CLST         421          1.0000000000
      1263       421  TIP3  H2            3.0373374547       -7.2800472231      -13.4759577017  CLST         421          1.0000000000
      1264       422  TIP3  OH2          -1.9854467070       -9.3455267411       -1.8057596157  CLST         422          1.0000000000
      1265       422  TIP3  H1           -1.2631173351       -9.9757707652       -2.0194616577  CLST         422          1.0000000000
      1266       422  TIP3  H2           -2.6681018654      -10.0228610765       -1.7488841192  CLST         422          1.0000000000
      1267       423  TIP3  OH2           1.7536664761        4.8289169974       -3.9675083968  CLST         423          1.0000000000
      1268       423  TIP3  H1            2.5023324179        5.3054265113       -4.4016341515  CLST         423          1.0000000000
      1269       423  TIP3  H2            2.1312790365        4.7820994567       -3.0437611007  CLST         423          1.0000000000
      1270       424  TIP3  OH2          -9.0785608998        4.4046662426        4.3599661371  CLST         424          1.0000000000
      1271       424  TIP3  H1           -9.0881437187        3.8104082392        3.5779504181  CLST         424          1.0000000000
      1272       424  TIP3  H2           -8.5658788617        5.1873080763        4.1036458794  CLST         424          1.0000000000
      1273       425  TIP3  OH2           8.1753130890      -12.7531978554        8.3833504805  CLST         425          1.0000000000
      1274       425  TIP3  H1            8.2916139802      -12.2232317327        7.5355769812  CLST         425          1.0000000000
      1275       425  TIP3  H2            7.8736381523      -11.9325859401        8.8096535680  CLST         425          1.0000000000
      1276       426  TIP3  OH2           8.2358942241        2.3826100032        8.2595269141  CLST         426          1.0000000000
      1277       426  TIP3  H1            9.0975250148        2.2998461552        8.7965791471  CLST         426          1.0000000000
      1278       426  TIP3  H2            8.3898354323        3.3852581483        8.0853121100  CLST         426          1.0000000000
      1279       427  TIP3  OH2          11.4928957425        7.5263772650       10.8784021403  CLST         427          1.0000000000
      1280       427  TIP3  H1           11.4669687933        8.2304398681       11.5478567097  CLST         427          1.0000000000
      1281       427  TIP3  H2           10.6043037003        7.1009781409       10.9128301790  CLST         427          1.0000000000
      1282       428  TIP3  OH2          12.4746887123        7.6485591166        1.1354016481  CLST         428          1.0000000000
      1283       428  TIP3  H1           12.2709654984        7.8523133784        0.1676532375  CLST         428          1.0000000000
      1284       428  TIP3  H2           13.3615978532        8.1099001660        1.1069222451  CLST         428          1.0000000000
      1285       429  TIP3  OH2          11.9039428525       -9.8598963812       -0.8080485318  CLST         429          1.0000000000
      1286       429  TIP3  H1           12.2176998331       -9.3378812132       -0.0389089543  CLST         429          1.0000000000
      1287       429  TIP3  H2           11.4039925221       -9.2188151736       -1.3108740962  CLST         429          1.0000000000
      1288       430  TIP3  OH2           9.8811907234       -6.7192936366        3.5947878542  CLST         430          1.0000000000
      1289       430  TIP3  H1            9.7203949338       -7.0770762475        2.6512359876  CLST         430          1.0000000000
      1290       430  TIP3  H2           10.8836893875       -6.8472573928        3.5317220806  CLST         430          1.0000000000
      1291       431  TIP3  OH2         -12.8809197303        9.3178574011       -2.4037637495  CLST         431          1.0000000000
      1292       431  TIP3  H1          -13.6849472986        9.6897286205       -2.6582784745  CLST         431          1.0000000000
      1293       431  TIP3  H2          -13.0996260053        8.8700714639       -1.6011565367  CLST         431          1.0000000000
      1294       432  TIP3  OH2           5.4992378214        8.4735534709      -10.0753636250  CLST         432          1.0000000000
      1295       432  TIP3  H1            5.7925233088        8.6574858220       -9.1129663643  CLST         432          1.0000000000
      1296       432  TIP3  H2            4.8869889189        9.2838976403      -10.1264071131  CLST         432          1.0000000000
      1297       433  TIP3  OH2          -0.7650943727        8.1300571504        7.9175236844  CLST         433          1.0000000000
      1298       433  TIP3  H1           -1.6248138638        8.5757244265        8.0131949651  CLST         433          1.0000000000
      1299       433  TIP3  H2           -1.0155579476        7.3498496343        7.4273370188  CLST         433          1.0000000000
      1300       434  TIP3  OH2          -7.3883610888        0.7280004239        3.8347911107  CLST         434          1.0000000000
      1301       434  TIP3  H1           -7.8218365833        1.4341835898        3.2370294024  CLST         434          1.0000000000
      1302       434  TIP3  H2           -7.9893296673       -0.0033983903        3.6039297202  CLST         434          1.0000000000
      1303       435  TIP3  OH2           9.8937725184       -0.3607068242       -7.2272956853  CLST         435          1.0000000000
      1304       435  TIP3  H1            9.5342979771       -0.4235027696       -6.3809711060  CLST         435          1.0000000000
      1305       435  TIP3  H2           10.0437893688        0.5417705024       -7.4612687911  CLST         435          1.0000000000
      1306       436  TIP3  OH2           3.7418085437       10.4800589097       -9.0428466424  CLST         436          1.0000000000
      1307       436  TIP3  H1            4.1279020103       11.1801413575       -8.5073520487  CLST         436          1.0000000000
      1308       436  TIP3  H2            2.9446472636       10.2673487421       -8.5388169924  CLST         436          1.0000000000
      1309       437  TIP3  OH2          -8.4212605084       -0.7699375958       -7.8826376872  CLST         437          1.0000000000
      1310       437  TIP3  H1           -8.6904805769       -0.3388844574       -8.7320331286  CLST         437          1.0000000000
      1311       437  TIP3  H2           -7.4229731789       -0.6449041754       -8.0205305890  CLST         437          1.0000000000
      1312       438  TIP3  OH2          -3.2814068770        5.5214689126       -8.0558371755  CLST         438          1.0000000000
      1313       438  TIP3  H1           -4.0631765241        6.0842748804       -7.7914488743  CLST         438          1.0000000000
      1314       438  TIP3  H2           -3.6263922799        5.5599203154       -9.0285553408  CLST         438          1.0000000000
      1315       439  TIP3  OH2          14.2607717402        1.7618391310       -3.9754359046  CLST         439          1.0000000000
      1316       439  TIP3  H1           13.6472116807        2.4806184873       -4.1764207126  CLST         439          1.0000000000
      1317       439  TIP3  H2           13.7346611664        1.3754011258       -3.2372461843  CLST         439          1.0000000000
      1318       440  TIP3  OH2           1.2205060520      -12.8652095286      -11.1026769199  CLST         440          1.0000000000
      1319       440  TIP3  H1            0.2006098890      -12.6377734619      -11.0870701613  CLST         440          1.0000000000
      1320       440  TIP3  H2            1.2972728771      -13.6013099170      -11.6519193353  CLST         440          1.0000000000
      1321       441  TIP3  OH2          -1.4617529161       -4.3586771867        3.1834631266  CLST         441          1.0000000000
      1322       441  TIP3  H1           -1.5908163204       -3.4801683893        3.4141186586  CLST         441          1.0000000000
      1323       441  TIP3  H2           -1.2959516436       -4.8278007304        4.0587134407  CLST         441          1.0000000000
      1324       442  TIP3  OH2           3.1504525828       -9.8564660102       -7.8878715937  CLST         442          1.0000000000
      1325       442  TIP3  H1            3.5817632280      -10.3187536062       -8.6831287158  CLST         442          1.0000000000
      1326       442  TIP3  H2            2.3711960628       -9.4761547656       -8.4140133647  CLST         442          1.0000000000
      1327       443  TIP3  OH2           1.1886723547       10.2566165152      -12.8901152645  CLST         443          1.0000000000
      1328       443  TIP3  H1            1.4942593661       10.8712408609      -12.1412289904  CLST         443          1.0000000000
      1329       443  TIP3  H2            1.8466733379       10.4791554728      -13.5072111338  CLST         443          1.0000000000
      1330       444  TIP3  OH2          -8.0833850106        1.3402843728       -1.7864691860  CLST         444          1.0000000000
      1331       444  TIP3  H1           -8.0701389858        1.8686217836       -2.6314764846  CLST         444          1.0000000000
      1332       444  TIP3  H2           -7.5370944617        2.0039613599       -1.2541046186  CLST         444          1.0000000000
      1333       445  TIP3  OH2         -11.4702029023       -5.1604058897        6.1355171445  CLST         445          1.0000000000
      1334       445  TIP3  H1          -11.2664270766       -4.2476980950        5.7992149576  CLST         445          1.0000000000
      1335       445  TIP3  H2          -11.7601661759       -4.9881648976        7.0095260144  CLST         445          1.0000000000
      1336       446  TIP3  OH2          -2.9217174320        4.6507267713       -5.2548605189  CLST         446          1.0000000000
      1337       446  TIP3  H1           -3.2655211273        4.8951472655       -6.1399392142  CLST         446          1.0000000000
      1338       446  TIP3  H2           -2.0095380341        5.0810877386       -5.4017911891  CLST         446          1.0000000000
      1339       447  TIP3  OH2          -5.0332532156      -12.8174267972       -4.0518056701  CLST         447          1.0000000000
      1340       447  TIP3  H1           -5.2297965925      -13.4817083562       -3.3646769360  CLST         447          1.0000000000
      1341       447  TIP3  H2           -4.7436864637      -12.1244441329       -3.4216104272  CLST         447          1.0000000000
      1342       448  TIP3  OH2           7.2464567236        9.5556817223        4.8031144932  CLST         448          1.0000000000
      1343       448  TIP3  H1            7.5047087489        9.6019317744        5.7517492808  CLST         448          1.0000000000
      1344       448  TIP3  H2            6.4695812092       10.1858277837        4.7777595249  CLST         448          1.0000000000
      1345       449  TIP3  OH2           4.2899108582        5.1409500930        8.4954837454  CLST         449          1.0000000000
      1346       449  TIP3  H1            4.9818823201        4.5380484806        8.8750607830  CLST         449          1.0000000000
      1347       449  TIP3  H2            4.0091002816        4.6307682036        7.7039071935  CLST         449          1.0000000000
      1348       450  TIP3  OH2          -4.2258573843        0.4458055550       -2.0337141901  CLST         450          1.0000000000
      1349       450  TIP3  H1           -3.9105865446        1.2708925082       -2.4516016721  CLST         450          1.0000000000
      1350       450  TIP3  H2           -3.4679379764       -0.1444832602       -2.0361160365  CLST         450          1.0000000000
      1351       451  TIP3  OH2          13.6874857096       -1.9564589416       -5.6653879060  CLST         451          1.0000000000
      1352       451  TIP3  H1           14.5040090758       -2.4277918356       -5.5685165983  CLST         451          1.0000000000
      1353       451  TIP3  H2           14.1822200230       -0.9752106050       -5.8977547663  CLST         451          1.0000000000
      1354       452  TIP3  OH2           8.3960299670        5.0055483887        7.9955416015  CLST         452          1.0000000000
      1355       452  TIP3  H1            7.5868733327        5.5572523959        8.0745662665  CLST         452          1.0000000000
      1356       452  TIP3  H2            8.9939771347        5.6613342655        7.5306609118  CLST         452          1.0000000000
      1357       453  TIP3  OH2           7.1279022059        2.6897483526       -6.0604590996  CLST         453          1.0000000000
      1358       453  TIP3  H1            6.2688980567        2.4740456000       -5.6500546075  CLST         453          1.0000000000
      1359       453  TIP3  H2            6.7648127716        2.5664453730       -6.9596472618  CLST         453          1.0000000000
      1360       454  TIP3  OH2           1.1117344060        5.4132469767        1.9940176231  CLST         454          1.0000000000
      1361       454  TIP3  H1            0.2910352612        4.9517501744        1.6371881996  CLST         454          1.0000000000
      1362       454  TIP3  H2            0.7491593965        6.0488202712        2.6364356795  CLST         454          1.0000000000
      1363       455  TIP3  OH2          -1.2419996303        0.7938763841      -10.3659479061  CLST         455          1.0000000000
      1364       455  TIP3  H1           -1.1288048780        1.0518819053       -9.3716532938  CLST         455          1.0000000000
      1365       455  TIP3  H2           -1.1894890756        1.7806118436      -10.7249018996  CLST         455          1.0000000000
      1366       456  TIP3  OH2           5.2814970608       11.3363426232        5.1463120204  CLST         456          1.0000000000
      1367       456  TIP3  H1            4.7567376302       11.7927590364        4.4406161916  CLST         456          1.0000000000
      1368       456  TIP3  H2            4.5136620683       11.1193766168        5.7465415975  CLST         456          1.0000000000
      1369       457  TIP3  OH2          -4.7763966989       -7.6113427367        4.7699892820  CLST         457          1.0000000000
      1370       457  TIP3  H1           -5.5145238701       -7.3795875728        5.3325169446  CLST         457          1.0000000000
      1371       457  TIP3  H2           -5.1026017882       -7.3006302075        3.8876246320  CLST         457          1.0000000000
      1372       458  TIP3  OH2           8.0829566346       -6.4783376100      -11.2953776272  CLST         458          1.0000000000
      1373       458  TIP3  H1            9.0659585840       -6.3657762142      -11.4623500436  CLST         458          1.0000000000
      1374       458  TIP3  H2            7.8951647917       -5.6381371040      -10.8281594228  CLST         458          1.0000000000
      1375       459  TIP3  OH2           6.4930367549       -9.9477862614       -7.9147702254  CLST         459          1.0000000000
      1376       459  TIP3  H1            6.0815982022       -9.0869208085       -7.6777796528  CLST         459          1.0000000000
      1377       459  TIP3  H2            7.3397290439       -9.5335970880       -8.3379019200  CLST         459          1.0000000000
      1378       460  TIP3  OH2           9.2109275105       -2.1752164677       -2.8383075952  CLST         460          1.0000000000
      1379       460  TIP3  H1            9.6835311451       -2.5294612126       -2.0681268917  CLST         460          1.0000000000
      1380       460  TIP3  H2            9.9320753622       -1.8124613759       -3.3944767029  CLST         460          1.0000000000
      1381       461  TIP3  OH2          -1.3909427997      -12.7063882923       -5.4326508250  CLST         461          1.0000000000
      1382       461  TIP3  H1           -0.7736230845      -13.0970969728       -6.0887352288  CLST         461          1.0000000000
      1383       461  TIP3  H2           -0.9959263445      -13.1948366234       -4.6529690070  CLST         461          1.0000000000
      1384       462  TIP3  OH2          -0.0222688844        5.4250179404      -12.7503423374  CLST         462          1.0000000000
      1385       462  TIP3  H1            0.1805314808        6.3910244382      -12.5050881498  CLST         462          1.0000000000
      1386       462  TIP3  H2            0.7540222636        5.3641029651      -13.2895500817  CLST         462          1.0000000000
      1387       463  TIP3  OH2          -1.6226399471        1.8505363537       -7.6830989723  CLST         463          1.0000000000
      1388       463  TIP3  H1           -1.4847126453        1.1690017306       -6.9892500971  CLST         463          1.0000000000
      1389       463  TIP3  H2           -2.6510278384        1.7942121736       -7.5732955182  CLST         463          1.0000000000
      1390       464  TIP3  OH2          -6.5871272816        6.2550928768        4.1347600590  CLST         464          1.0000000000
      1391       464  TIP3  H1           -6.0507677049        5.6089643763        4.5618338976  CLST         464          1.0000000000
      1392       464  TIP3  H2           -6.8015901567        6.9662226969        4.8252052792  CLST         464          1.0000000000
      1393       465  TIP3  OH2          -4.7035404569      -12.4277080508        6.2910792556  CLST         465          1.0000000000
      1394       465  TIP3  H1           -3.8322837315      -12.9489289096        6.0128045021  CLST         465          1.0000000000
      1395       465  TIP3  H2           -4.2481877038      -11.5416747334        6.2387136032  CLST         465          1.0000000000
      1396       466  TIP3  OH2          -2.4313261850        9.2104367222       -4.2749405020  CLST         466          1.0000000000
      1397       466  TIP3  H1           -3.1498915658        9.2754137745       -4.9738272981  CLST         466          1.0000000000
      1398       466  TIP3  H2           -2.7736604072        9.8407199872       -3.5814990549  CLST         466          1.0000000000
      1399       467  TIP3  OH2           8.3272474725        5.8954960059        4.6800683297  CLST         467          1.0000000000
      1400       467  TIP3  H1            8.8700883392        6.2694424805        5.3827057239  CLST         467          1.0000000000
      1401       467  TIP3  H2            8.2694620556        6.6318826011        4.0338465297  CLST         467          1.0000000000
      1402       468  TIP3  OH2          -0.5220915681      -12.3969766679       10.5060040816  CLST         468          1.0000000000
      1403       468  TIP3  H1           -1.0937399270      -12.2216355819       11.2679039042  CLST         468          1.0000000000
      1404       468  TIP3  H2            0.3579530980      -12.2594828147       10.8764865029  CLST         468          1.0000000000
      1405       469  TIP3  OH2           5.4652358287        8.2832165635       14.2189686271  CLST         469          1.0000000000
      1406       469  TIP3  H1            6.0759055651        8.5087560738       13.5134030448  CLST         469          1.0000000000
      1407       469  TIP3  H2            4.7293390021        8.8168863010       13.9630711009  CLST         469          1.0000000000
      1408       470  TIP3  OH2         -11.2319408961       12.8307044111        0.6501107533  CLST         470          1.0000000000
      1409       470  TIP3  H1          -10.9810948649       12.6128307438       -0.2747448132  CLST         470          1.0000000000
      1410       470  TIP3  H2          -11.8140786008       12.0395327469        0.9385351446  CLST         470          1.0000000000
      1411       471  TIP3  OH2          -4.3335538471        9.6349942122       -9.1987686811  CLST         471          1.0000000000
      1412       471  TIP3  H1           -4.0306509651        8.8296856089       -9.6379945974  CLST         471          1.0000000000
      1413       471  TIP3  H2           -4.6564508853       10.0577380829      -10.0499869758  CLST         471          1.0000000000
      1414       472  TIP3  OH2         -11.9635620130        3.7706226705        2.8289647701  CLST         472          1.0000000000
      1415       472  TIP3  H1          -12.6631291327        3.0085648416        2.7934608010  CLST         472          1.0000000000
      1416       472  TIP3  H2          -11.3606238814        3.3195697456        2.1969123684  CLST         472          1.0000000000
      1417       473  TIP3  OH2           5.3222018827        0.7139626851       10.1180260271  CLST         473          1.0000000000
      1418       473  TIP3  H1            5.8623287301        1.5587640881       10.2066805532  CLST         473          1.0000000000
      1419       473  TIP3  H2            4.4917147066        1.0866826097       10.2174716915  CLST         473          1.0000000000
      1420       474  TIP3  OH2           1.3481157478        1.6157554170        1.4196008056  CLST         474          1.0000000000
      1421       474  TIP3  H1            0.3844454425        1.5652813550        1.2170692811  CLST         474          1.0000000000
      1422       474  TIP3  H2            1.5733028550        0.7933486819        0.9747720608  CLST         474          1.0000000000
      1423       475  TIP3  OH2           6.1186488500       -8.5589219918       12.0774179350  CLST         475          1.0000000000
      1424       475  TIP3  H1            6.8970592210       -8.5763539314       12.6181354813  CLST         475          1.0000000000
      1425       475  TIP3  H2            6.2790476479       -9.0080660059       11.2416383607  CLST         475          1.0000000000
      1426       476  TIP3  OH2         -11.5423617491       -8.9549705434       -0.0395318485  CLST         476          1.0000000000
      1427       476  TIP3  H1          -11.9600298750       -8.0801705690       -0.4052697490  CLST         476          1.0000000000
      1428       476  TIP3  H2          -10.8710951685       -8.8802118971       -0.7723785436  CLST         476          1.0000000000
      1429       477  TIP3  OH2         -12.4377901058        3.5336047329      -13.3781821060  CLST         477          1.0000000000
      1430       477  TIP3  H1          -12.6088130749        2.5932169904      -13.3548942037  CLST         477          1.0000000000
      1431       477  TIP3  H2          -11.8900716385        3.4926236660      -14.1684154875  CLST         477          1.0000000000
      1432       478  TIP3  OH2          -3.8142469712        6.5228603223      -10.6780033684  CLST         478          1.0000000000
      1433       478  TIP3  H1           -4.2534171194        6.1208243661      -11.4732782261  CLST         478          1.0000000000
      1434       478  TIP3  H2           -3.3285061587        7.2171796898      -11.2138004383  CLST         478          1.0000000000
      1435       479  TIP3  OH2           7.8172239683       -1.3955789608       -8.6166721064  CLST         479          1.0000000000
      1436       479  TIP3  H1            8.6326340870       -0.9282163595       -8.3241999749  CLST         479          1.0000000000
      1437       479  TIP3  H2            7.3661980483       -1.3055542620       -7.7341881719  CLST         479          1.0000000000
      1438       480  TIP3  OH2          -6.0585571539        7.6177349194       -0.0590347722  CLST         480          1.0000000000
      1439       480  TIP3  H1           -5.1603484757        8.0627558886       -0.1083871331  CLST         480          1.0000000000
      1440       480  TIP3  H2           -5.7692460508        6.6716845060       -0.0333943243  CLST         480          1.0000000000
      1441       481  TIP3  OH2          -3.0310890252        2.4141634180       11.9038472912  CLST         481          1.0000000000
      1442       481  TIP3  H1           -2.0920697013        2.5067435460       11.5583180393  CLST         481          1.0000000000
      1443       481  TIP3  H2           -2.7538007263        1.9689839583       12.6754572233  CLST         481          1.0000000000
      1444       482  TIP3  OH2          -8.0026811698       11.6300225659       -7.4288742266  CLST         482          1.0000000000
      1445       482  TIP3  H1           -8.6475286604       11.3628048202       -8.0839865124  CLST         482          1.0000000000
      1446       482  TIP3  H2           -7.2940633546       12.0656591730       -8.0278854124  CLST         482          1.0000000000
      1447       483  TIP3  OH2           6.2063319676       -5.8778749209       12.6902657034  CLST         483          1.0000000000
      1448       483  TIP3  H1            5.6056864362       -6.6323683455       12.5310233733  CLST         483          1.0000000000
      1449       483  TIP3  H2            6.3367102315       -5.6651750037       11.7490676100  CLST         483          1.0000000000
      1450       484  TIP3  OH2           6.8948820833       -3.0082047038        3.0198421990  CLST         484          1.0000000000
      1451       484  TIP3  H1            5.8963179237       -3.0925340420        2.9015426566  CLST         484          1.0000000000
      1452       484  TIP3  H2            6.8430647222       -2.3139162228        3.7151282510  CLST         484          1.0000000000
      1453       485  TIP3  OH2         -11.7978645603        4.6082636185       10.0234204905  CLST         485          1.0000000000
      1454       485  TIP3  H1          -11.4050860952        3.6791381969       10.0968506497  CLST         485          1.0000000000
      1455       485  TIP3  H2          -12.3371172458        4.3980642531        9.1977663011  CLST         485          1.0000000000
      1456       486  TIP3  OH2           8.3750027722       -7.1685705857       13.5706750451  CLST         486          1.0000000000
      1457       486  TIP3  H1            8.4202405091       -7.4056447606       14.4223989458  CLST         486          1.0000000000
      1458       486  TIP3  H2            7.5466955858       -6.5898513966       13.4175678018  CLST         486          1.0000000000
      1459       487  TIP3  OH2          12.2174875536       -8.3755053991        6.0587365630  CLST         487          1.0000000000
      1460       487  TIP3  H1           11.1998441615       -8.3740477678        6.1505134321  CLST         487          1.0000000000
      1461       487  TIP3  H2           12.4254011569       -8.4874419570        7.0545785778  CLST         487          1.0000000000
      1462       488  TIP3  OH2          15.0211721906        8.3731699867        7.7403958454  CLST         488          1.0000000000
      1463       488  TIP3  H1           15.6702321412        7.6998655749        7.7904355914  CLST         488          1.0000000000
      1464       488  TIP3  H2           14.2512794529        7.8251716845        8.0858294631  CLST         488          1.0000000000
      1465       489  TIP3  OH2          -6.0465923686      -10.7564655871       11.8365099501  CLST         489          1.0000000000
      1466       489  TIP3  H1           -6.0812783200       -9.8901617458       11.5672473831  CLST         489          1.0000000000
      1467       489  TIP3  H2           -6.9018657112      -11.1024969712       11.2602378101  CLST         489          1.0000000000
      1468       490  TIP3  OH2           6.8231392040      -13.1810424187        2.3706832269  CLST         490          1.0000000000
      1469       490  TIP3  H1            6.5173605668      -12.2848605549        2.6572088944  CLST         490          1.0000000000
      1470       490  TIP3  H2            7.3698201626      -13.3958311542        3.0942225575  CLST         490          1.0000000000
      1471       491  TIP3  OH2           2.9942958505       -9.2418061994        4.9229325555  CLST         491          1.0000000000
      1472       491  TIP3  H1            2.1082175516       -9.0480909784        5.2830295166  CLST         491          1.0000000000
      1473       491  TIP3  H2            2.7299832492       -9.8225431964        4.1937744295  CLST         491          1.0000000000
      1474       492  TIP3  OH2          -0.5893014471       -6.5368414578       12.1158748031  CLST         492          1.0000000000
      1475       492  TIP3  H1           -0.3900351041       -7.4611976625       12.1371373508  CLST         492          1.0000000000
      1476       492  TIP3  H2           -1.5518871469       -6.5104009484       12.2684786845  CLST         492          1.0000000000
      1477       493  TIP3  OH2           3.2954200512       10.6958755055        7.1455444876  CLST         493          1.0000000000
      1478       493  TIP3  H1            4.0281805448       10.8507708410        7.8024002451  CLST         493          1.0000000000
      1479       493  TIP3  H2            2.6082503965       10.3013693139        7.7592764810  CLST         493          1.0000000000
      1480       494  TIP3  OH2          -9.2653659118        5.4126968148       -0.7190869803  CLST         494          1.0000000000
      1481       494  TIP3  H1           -9.5973115978        6.1102075472       -1.3379084475  CLST         494          1.0000000000
      1482       494  TIP3  H2           -9.8011888058        5.6064567082        0.1033691754  CLST         494          1.0000000000
      1483       495  TIP3  OH2           5.1261948193       -6.9073157213       -1.9073589091  CLST         495          1.0000000000
      1484       495  TIP3  H1            5.5617111222       -6.4254450522       -2.6662127564  CLST         495          1.0000000000
      1485       495  TIP3  H2            6.0332825537       -7.3111245453       -1.6610729715  CLST         495          1.0000000000
      1486       496  TIP3  OH2         -12.9228343505      -10.6959958473        7.5524904204  CLST         496          1.0000000000
      1487       496  TIP3  H1          -13.7226691084      -11.0836243976        7.7894501156  CLST         496          1.0000000000
      1488       496  TIP3  H2          -12.6271751074      -11.3395016883        6.8996224682  CLST         496          1.0000000000
      1489       497  TIP3  OH2          -9.6123856019      -13.4747056962       -7.3792492109  CLST         497          1.0000000000
      1490       497  TIP3  H1          -10.2306707240      -14.2112228490       -7.2749732691  CLST         497          1.0000000000
      1491       497  TIP3  H2          -10.1518055137      -13.0584545431       -8.0156123115  CLST         497          1.0000000000
      1492       498  TIP3  OH2          -5.4700355778        0.4497917703      -11.1708651903  CLST         498          1.0000000000
      1493       498  TIP3  H1           -5.8543118643        0.4327053309      -12.0959560364  CLST         498          1.0000000000
      1494       498  TIP3  H2           -5.2138969165        1.3968096755      -11.1342954987  CLST         498          1.0000000000
      1495       499  TIP3  OH2          11.4709961449        6.6110297368        3.5934895799  CLST         499          1.0000000000
      1496       499  TIP3  H1           12.1860754749        6.8718036144        2.9897054491  CLST         499          1.0000000000
      1497       499  TIP3  H2           11.1108042354        7.5033593410        3.8135888932  CLST         499          1.0000000000
      1498       500  TIP3  OH2           2.4370416219       -8.7019657358      -13.2523767907  CLST         500          1.0000000000
      1499       500  TIP3  H1            1.5829001468       -8.8901523252      -13.6364160290  CLST         500          1.0000000000
      1500       500  TIP3  H2            2.6061752076       -9.5005194067      -12.6263326571  CLST         500          1.0000000000
      1501       501  TIP3  OH2           1.1633788686      -10.9712378794       13.8896036044  CLST         501          1.0000000000
      1502       501  TIP3  H1            1.4252673663      -11.7177790865       14.4633588465  CLST         501          1.0000000000
      1503       501  TIP3  H2            2.0352555699      -10.5696649912       13.9232886730  CLST         501          1.0000000000
      1504       502  TIP3  OH2           6.1296199046        3.6111134573        9.6988088300  CLST         502          1.0000000000
      1505       502  TIP3  H1            6.6315865568        4.0519065871       10.4033781068  CLST         502          1.0000000000
      1506       502  TIP3  H2            6.8952398999        3.3019704633        9.1506779672  CLST         502          1.0000000000
      1507       503  TIP3  OH2          10.3983253474       -1.0247650981        0.1607881122  CLST         503          1.0000000000
      1508       503  TIP3  H1           11.3304829913       -0.8312894467        0.4295587241  CLST         503          1.0000000000
      1509       503  TIP3  H2           10.3139457603       -0.4953283460       -0.6408745127  CLST         503          1.0000000000
      1510       504  TIP3  OH2           8.2485760852      -13.7631019314       10.7810737758  CLST         504          1.0000000000
      1511       504  TIP3  H1            7.8688568889      -13.6404524848        9.8624805526  CLST         504          1.0000000000
      1512       504  TIP3  H2            8.1893251354      -14.6742871514       10.8606680904  CLST         504          1.0000000000
      1513       505  TIP3  OH2           3.6019960650      -10.8891764133       -5.6601183819  CLST         505          1.0000000000
      1514       505  TIP3  H1            3.3881902173      -10.3425632248       -6.4793416398  CLST         505          1.0000000000
      1515       505  TIP3  H2            3.4153212148      -10.2710998574       -4.9114187971  CLST         505          1.0000000000
      1516       506  TIP3  OH2          -9.1589456700       -3.3661422162       -8.1946099340  CLST         506          1.0000000000
      1517       506  TIP3  H1           -8.9244748651       -2.4306255601       -7.8657947845  CLST         506          1.0000000000
      1518       506  TIP3  H2          -10.0031249954       -3.1930420139       -8.6699764624  CLST         506          1.0000000000
      1519       507  TIP3  OH2          11.1056536612        9.6189186504      -12.9621501675  CLST         507          1.0000000000
      1520       507  TIP3  H1           11.4645191815        9.8398704119      -13.6824604732  CLST         507          1.0000000000
      1521       507  TIP3  H2           11.0022902956        8.6681711908      -12.6714875181  CLST         507          1.0000000000
      1522       508  TIP3  OH2           9.2604711183       12.1579754761        8.7571548075  CLST         508          1.0000000000
      1523       508  TIP3  H1            8.7524025215       11.9547534125        7.9752742391  CLST         508          1.0000000000
      1524       508  TIP3  H2           10.1332592535       12.3616273469        8.3170478384  CLST         508          1.0000000000
      1525       509  TIP3  OH2          -0.6265467908       -1.5725853602      -11.2883844222  CLST         509          1.0000000000
      1526       509  TIP3  H1           -1.5692619206       -1.9040551080      -11.3501952347  CLST         509          1.0000000000
      1527       509  TIP3  H2           -0.8906011067       -0.6002225225      -11.0002899718  CLST         509          1.0000000000
      1528       510  TIP3  OH2           8.1647897365        2.3096955635       11.5772458951  CLST         510          1.0000000000
      1529       510  TIP3  H1            8.2216902172        1.2967708590       11.5242303036  CLST         510          1.0000000000
      1530       510  TIP3  H2            8.8858165672        2.4973912946       10.9381821142  CLST         510          1.0000000000
      1531       511  TIP3  OH2          -8.7767302940       -6.0493205117       -0.7292702445  CLST         511          1.0000000000
      1532       511  TIP3  H1           -9.7160070980       -6.2561408267       -0.9044011805  CLST         511          1.0000000000
      1533       511  TIP3  H2           -8.6747833909       -5.4012077425       -1.4607309535  CLST         511          1.0000000000
      1534       512  TIP3  OH2          10.0204903270        6.9793571385        6.9038117228  CLST         512          1.0000000000
      1535       512  TIP3  H1           10.2063752101        7.6580081604        7.6191752860  CLST         512          1.0000000000
      1536       512  TIP3  H2           10.2484800108        7.5837775814        6.1246681310  CLST         512          1.0000000000
      1537       513  TIP3  OH2         -11.8852213651       10.5750800582        9.1895203751  CLST         513          1.0000000000
      1538       513  TIP3  H1          -11.3332898944       11.2777546275        9.5970373408  CLST         513          1.0000000000
      1539       513  TIP3  H2          -11.8683394085        9.9025595002        9.8966873889  CLST         513          1.0000000000
      1540       514  TIP3  OH2          -4.8788223089        4.9874023986        0.1643957034  CLST         514          1.0000000000
      1541       514  TIP3  H1           -4.1314314125        5.3559836969        0.6918506593  CLST         514          1.0000000000
      1542       514  TIP3  H2           -4.5529302154        4.9586313017       -0.7696465295  CLST         514          1.0000000000
      1543       515  TIP3  OH2          -0.7524902164        0.9837753507       -4.3914719414  CLST         515          1.0000000000
      1544       515  TIP3  H1           -1.5458288431        1.4726914352       -4.0635856313  CLST         515          1.0000000000
      1545       515  TIP3  H2           -0.1265368252        1.7262433579       -4.6171319482  CLST         515          1.0000000000
      1546       516  TIP3  OH2          -7.3293693324       -8.6212942516        6.4152015355  CLST         516          1.0000000000
      1547       516  TIP3  H1           -7.6626363529       -8.3930302295        5.5406691099  CLST         516          1.0000000000
      1548       516  TIP3  H2           -7.8153320449       -7.8288080030        6.8641059230  CLST         516          1.0000000000
      1549       517  TIP3  OH2           0.7074900846       11.0182284731       11.5815189773  CLST         517          1.0000000000
      1550       517  TIP3  H1            0.9154652906       11.1267327794       10.6536440062  CLST         517          1.0000000000
      1551       517  TIP3  H2           -0.2628945131       11.1663582267       11.5579239254  CLST         517          1.0000000000
      1552       518  TIP3  OH2         -11.6402571916       -3.4995767562      -11.4532091944  CLST         518          1.0000000000
      1553       518  TIP3  H1          -12.0395485204       -3.3998106392      -12.2766796414  CLST         518          1.0000000000
      1554       518  TIP3  H2          -10.7974269725       -3.9201836558      -11.8007501864  CLST         518          1.0000000000
      1555       519  TIP3  OH2           2.2409821942        3.4082939454        3.2890932227  CLST         519          1.0000000000
      1556       519  TIP3  H1            1.8295954495        4.1016158916        2.6941759166  CLST         519          1.0000000000
      1557       519  TIP3  H2            2.0351041176        2.5934057913        2.7669842867  CLST         519          1.0000000000
      1558       520  TIP3  OH2         -10.2905188957        6.2478498591        8.2492085409  CLST         520          1.0000000000
      1559       520  TIP3  H1          -10.5596030423        5.6751664632        7.4592025033  CLST         520          1.0000000000
      1560       520  TIP3  H2          -10.7161189519        5.6389728022        8.9201958099  CLST         520          1.0000000000
      1561       521  TIP3  OH2           8.4290323287       -8.8651281736       -9.4644860581  CLST         521          1.0000000000
      1562       521  TIP3  H1            8.7064517768       -9.4408946172      -10.2195695290  CLST         521          1.0000000000
      1563       521  TIP3  H2            8.1804954797       -8.0385654247       -9.9172820369  CLST         521          1.0000000000
      1564       522  TIP3  OH2          -5.5117957801       -7.0902401499        8.0192394596  CLST         522          1.0000000000
      1565       522  TIP3  H1           -5.6837119264       -7.9083929406        7.5912911842  CLST         522          1.0000000000
      1566       522  TIP3  H2           -4.5682978638       -7.3687598610        8.2872231007  CLST         522          1.0000000000
      1567       523  TIP3  OH2          -4.0343937099       12.0098877109      -13.7355213645  CLST         523          1.0000000000
      1568       523  TIP3  H1           -2.4261712429       12.1590218400      -13.8629854385  CLST         523          1.0000000000
      1569       523  TIP3  H2           -4.1048876829       12.5897199513      -14.3626974930  CLST         523          1.0000000000
      1570       524  TIP3  OH2           6.9231697831        3.8991618404       -1.8066239818  CLST         524          1.0000000000
      1571       524  TIP3  H1            7.1531864076        3.2331239504       -2.4479858335  CLST         524          1.0000000000
      1572       524  TIP3  H2            5.9613292527        3.9005550804       -1.8816278364  CLST         524          1.0000000000
      1573       525  TIP3  OH2           0.4605059715        6.9174849423       -2.5326973784  CLST         525          1.0000000000
      1574       525  TIP3  H1            0.7222606359        6.2908702410       -3.2583000023  CLST         525          1.0000000000
      1575       525  TIP3  H2            0.2356628633        6.2003117921       -1.8892341640  CLST         525          1.0000000000
      1576       526  TIP3  OH2           7.0347195765       -5.4837921997       -3.5756891342  CLST         526          1.0000000000
      1577       526  TIP3  H1            7.2763462173       -5.4677160684       -4.5391321391  CLST         526          1.0000000000
      1578       526  TIP3  H2            7.9397469621       -5.6604207995       -3.3158639001  CLST         526          1.0000000000
      1579       527  TIP3  OH2           0.3647581315        7.0438870527        3.9212697731  CLST         527          1.0000000000
      1580       527  TIP3  H1            1.0992459544        7.4864583129        4.5042099825  CLST         527          1.0000000000
      1581       527  TIP3  H2           -0.1609520070        7.7721916883        3.6155692576  CLST         527          1.0000000000
      1582       528  TIP3  OH2          -2.7860125421        9.9462663895        8.7747224109  CLST         528          1.0000000000
      1583       528  TIP3  H1           -3.2336137030        9.6078477402        9.6100497030  CLST         528          1.0000000000
      1584       528  TIP3  H2           -3.6222210078        9.8607441544        8.2331575357  CLST         528          1.0000000000
      1585       529  TIP3  OH2          -6.0262173467       12.3254260825       -9.3248889933  CLST         529          1.0000000000
      1586       529  TIP3  H1           -5.2969045245       12.9273527797       -9.2346506904  CLST         529          1.0000000000
      1587       529  TIP3  H2           -5.7262947638       11.6859300166       -9.9865737032  CLST         529          1.0000000000
      1588       530  TIP3  OH2          -4.4923010592       -5.5371510092      -13.2233048610  CLST         530          1.0000000000
      1589       530  TIP3  H1           -4.4879385876       -6.5646551392      -13.2528180603  CLST         530          1.0000000000
      1590       530  TIP3  H2           -3.5614670468       -5.3333929937      -13.0389367333  CLST         530          1.0000000000
      1591       531  TIP3  OH2         -11.5389256295       -0.3102119635       10.3973987953  CLST         531          1.0000000000
      1592       531  TIP3  H1          -11.8686547341       -0.5507656712       11.2015039440  CLST         531          1.0000000000
      1593       531  TIP3  H2          -11.8291463542       -0.9108403190        9.6579346765  CLST         531          1.0000000000
      1594       532  TIP3  OH2         -12.0834175551       -3.1091230019       -8.8878636790  CLST         532          1.0000000000
      1595       532  TIP3  H1          -12.4435525341       -3.9917662764       -8.8358255196  CLST         532          1.0000000000
      1596       532  TIP3  H2          -11.9700843696       -3.2149495601       -9.9205712096  CLST         532          1.0000000000
      1597       533  TIP3  OH2          -2.9222809487       -7.3127594221        8.6580378440  CLST         533          1.0000000000
      1598       533  TIP3  H1           -2.1760937779       -7.9332913359        8.4749944364  CLST         533          1.0000000000
      1599       533  TIP3  H2           -2.4318333138       -6.5156780304        8.3272963182  CLST         533          1.0000000000
      1600       534  TIP3  OH2           0.3884331451      -13.2940887431       -7.6703953318  CLST         534          1.0000000000
      1601       534  TIP3  H1            0.5027804968      -12.9979967312       -8.5968802735  CLST         534          1.0000000000
      1602       534  TIP3  H2            1.3366363622      -13.4187633739       -7.4722149615  CLST         534          1.0000000000
      1603       535  TIP3  OH2           2.6811280347        3.2606466928       -7.6074509662  CLST         535          1.0000000000
      1604       535  TIP3  H1            3.2768166305        2.7040085942       -7.0493897106  CLST         535          1.0000000000
      1605       535  TIP3  H2            1.8326289723        3.1488375878       -7.1419491183  CLST         535          1.0000000000
      1606       536  TIP3  OH2           8.0147953446      -12.6659933610       -3.4928123394  CLST         536          1.0000000000
      1607       536  TIP3  H1            7.4560911606      -12.3798981200       -4.2142759508  CLST         536          1.0000000000
      1608       536  TIP3  H2            8.2243474874      -13.5201903702       -3.9164172794  CLST         536          1.0000000000
      1609       537  TIP3  OH2          11.7157728903       -2.7550696167       -7.4642102772  CLST         537          1.0000000000
      1610       537  TIP3  H1           11.0510069831       -2.0442131624       -7.6450293520  CLST         537          1.0000000000
      1611       537  TIP3  H2           12.2209980738       -2.2247281510       -6.8064661041  CLST         537          1.0000000000
      1612       538  TIP3  OH2          -5.1988825144      -10.8373271249        0.8608025441  CLST         538          1.0000000000
      1613       538  TIP3  H1           -4.4028132217      -11.2170333416        1.3535539926  CLST         538          1.0000000000
      1614       538  TIP3  H2           -4.8769679373       -9.8744665178        0.8873495718  CLST         538          1.0000000000
      1615       539  TIP3  OH2           2.5399046707       -5.0015300796        0.9168456358  CLST         539          1.0000000000
      1616       539  TIP3  H1            1.5995463653       -5.3079451158        1.2466904516  CLST         539          1.0000000000
      1617       539  TIP3  H2            2.3597396712       -5.2910808505       -0.0367734671  CLST         539          1.0000000000
      1618       540  TIP3  OH2           4.0810145931       -6.7267841559        4.6600312576  CLST         540          1.0000000000
      1619       540  TIP3  H1            3.8687643887       -7.6850675684        4.8000815598  CLST         540          1.0000000000
      1620       540  TIP3  H2            4.3889433217       -6.8289030120        3.7076317422  CLST         540          1.0000000000
      1621       541  TIP3  OH2          -5.5851128916       10.4773021982        2.2735941383  CLST         541          1.0000000000
      1622       541  TIP3  H1           -6.1965115607       10.7106706400        3.0240214368  CLST         541          1.0000000000
      1623       541  TIP3  H2           -4.9882706486       11.2581163704        2.3801782384  CLST         541          1.0000000000
      1624       542  TIP3  OH2         -11.0633550901       14.4461115257        5.5198763648  CLST         542          1.0000000000
      1625       542  TIP3  H1          -11.0517116721       15.2810006793        5.0498337483  CLST         542          1.0000000000
      1626       542  TIP3  H2          -10.8261699244       13.9046676323        4.6546413658  CLST         542          1.0000000000
      1627       543  TIP3  OH2         -10.6678938023       11.4499024062       -2.3377158749  CLST         543          1.0000000000
      1628       543  TIP3  H1          -11.3168821570       10.7369436366       -2.5950578078  CLST         543          1.0000000000
      1629       543  TIP3  H2          -10.4169442393       11.8878346913       -3.1645937496  CLST         543          1.0000000000
      1630       544  TIP3  OH2          -0.5517481284        5.7112964398       -5.5793932556  CLST         544          1.0000000000
      1631       544  TIP3  H1           -0.4178210376        5.1966957402       -6.4330628377  CLST         544          1.0000000000
      1632       544  TIP3  H2            0.0379590615        5.2714516865       -4.9709547973  CLST         544          1.0000000000
      1633       545  TIP3  OH2          -7.8398016991        2.5340293836      -12.4429431651  CLST         545          1.0000000000
      1634       545  TIP3  H1           -8.0222839762        2.3382362086      -13.3992475221  CLST         545          1.0000000000
      1635       545  TIP3  H2           -8.4261793164        3.3452030918      -12.3419539330  CLST         545          1.0000000000
      1636       546  TIP3  OH2           3.8319299896       11.2154631863       -2.2434551444  CLST         546          1.0000000000
      1637       546  TIP3  H1            3.3577518743       10.3272984197       -2.1127973626  CLST         546          1.0000000000
      1638       546  TIP3  H2            4.6131528764       10.9887631011       -1.5395293614  CLST         546          1.0000000000
      1639       547  TIP3  OH2          -3.5506348967       -2.2259441741      -11.1696057931  CLST         547          1.0000000000
      1640       547  TIP3  H1           -3.4687343409       -2.2106019255      -10.1762098186  CLST         547          1.0000000000
      1641       547  TIP3  H2           -3.8999821300       -1.3217481664      -11.2673576201  CLST         547          1.0000000000
      1642       548  TIP3  OH2          10.6112283824        2.3661101542        1.4279226796  CLST         548          1.0000000000
      1643       548  TIP3  H1            9.6654065398        2.0487031416        1.6014161129  CLST         548          1.0000000000
      1644       548  TIP3  H2           10.4548432713        3.2440736068        1.8454517257  CLST         548          1.0000000000
