* Geometry rescue: EQUI at step 10000
*
        1644  EXT
         1         1  TIP3  OH2           4.4696889646       -1.4528065277       -2.3991683485  CLST           1          1.0000000000
         2         1  TIP3  H1            4.7861590819       -1.6168490020       -1.4452789026  CLST           1          1.0000000000
         3         1  TIP3  H2            5.3071495939       -1.8625154734       -2.7751445283  CLST           1          1.0000000000
         4         2  TIP3  OH2          10.7273375984        7.5666297155      -11.6423791521  CLST           2          1.0000000000
         5         2  TIP3  H1           11.0095038092        7.1941231238      -10.7700008201  CLST           2          1.0000000000
         6         2  TIP3  H2            9.7531011016        7.5191387737      -11.4687457640  CLST           2          1.0000000000
         7         3  TIP3  OH2           8.8111911218        5.3817472512       -4.2528387092  CLST           3          1.0000000000
         8         3  TIP3  H1            9.0288109336        5.5239459602       -3.2915574250  CLST           3          1.0000000000
         9         3  TIP3  H2            8.7120775163        6.3336959912       -4.4989788505  CLST           3          1.0000000000
        10         4  TIP3  OH2          -2.7944841941        6.6351554987       10.1852956788  CLST           4          1.0000000000
        11         4  TIP3  H1           -3.4249851266        7.0688544312        9.5553638843  CLST           4          1.0000000000
        12         4  TIP3  H2           -2.9988718317        7.1870137243       10.9600809088  CLST           4          1.0000000000
        13         5  TIP3  OH2           9.3005073816        6.0699806653       10.5410151096  CLST           5          1.0000000000
        14         5  TIP3  H1            8.8688983095        5.3403857112       11.0780311383  CLST           5          1.0000000000
        15         5  TIP3  H2            8.8958308476        5.9415294071        9.6766553668  CLST           5          1.0000000000
        16         6  TIP3  OH2          10.4386361144       -6.0264095567      -11.5877181058  CLST           6          1.0000000000
        17         6  TIP3  H1           10.9944119977       -5.5370442267      -10.9117438819  CLST           6          1.0000000000
        18         6  TIP3  H2           10.5231275113       -5.2982257362      -12.2624171494  CLST           6          1.0000000000
        19         7  TIP3  OH2         -12.2726961959        8.3679278871        5.7045313829  CLST           7          1.0000000000
        20         7  TIP3  H1          -12.6395012737        9.2433488751        6.0631313744  CLST           7          1.0000000000
        21         7  TIP3  H2          -11.4214772091        8.4276212237        6.1900654289  CLST           7          1.0000000000
        22         8  TIP3  OH2          -4.5618329268       -8.3539642382        0.6419356695  CLST           8          1.0000000000
        23         8  TIP3  H1           -5.1640429767       -7.6483966493        0.9121741926  CLST           8          1.0000000000
        24         8  TIP3  H2           -3.7891991984       -7.8715580011        0.3321690169  CLST           8          1.0000000000
        25         9  TIP3  OH2           2.6570255559      -14.2188561080       -4.1360346986  CLST           9          1.0000000000
        26         9  TIP3  H1            1.6936695318      -14.2165877074       -3.8911395785  CLST           9          1.0000000000
        27         9  TIP3  H2            2.9365166095      -13.8320190885       -3.3055908280  CLST           9          1.0000000000
        28        10  TIP3  OH2         -14.2229262114       -1.1570016977       -0.4859603752  CLST          10          1.0000000000
        29        10  TIP3  H1          -13.7498227766       -1.5186076411       -1.3369606500  CLST          10          1.0000000000
        30        10  TIP3  H2          -14.5224759429       -1.8501702125        0.0088315182  CLST          10          1.0000000000
        31        11  TIP3  OH2           6.8714837332        6.5891815105       -1.9451930218  CLST          11          1.0000000000
        32        11  TIP3  H1            7.1516459119        5.6681016212       -2.2144046390  CLST          11          1.0000000000
        33        11  TIP3  H2            6.8683187373        6.9767766333       -2.8389034311  CLST          11          1.0000000000
        34        12  TIP3  OH2          -8.2483255315        2.6860787626        1.9757360643  CLST          12          1.0000000000
        35        12  TIP3  H1           -7.7004891452        2.9984678102        1.2174972820  CLST          12          1.0000000000
        36        12  TIP3  H2           -9.1213392642        2.6149365317        1.4778930329  CLST          12          1.0000000000
        37        13  TIP3  OH2           7.7661663275        2.5453803580        2.0948771887  CLST          13          1.0000000000
        38        13  TIP3  H1            7.4478607830        3.3357055250        1.5918274715  CLST          13          1.0000000000
        39        13  TIP3  H2            7.6654527719        2.8924209291        3.0060672984  CLST          13          1.0000000000
        40        14  TIP3  OH2          -0.3653568821        2.2073017224        7.8905463367  CLST          14          1.0000000000
        41        14  TIP3  H1           -0.0557108905        3.0010910780        7.3879768245  CLST          14          1.0000000000
        42        14  TIP3  H2            0.2623948439        1.5225002618        7.5437450228  CLST          14          1.0000000000
        43        15  TIP3  OH2          -9.0064764899       -3.8979764465      -12.6343049757  CLST          15          1.0000000000
        44        15  TIP3  H1           -8.6549328352       -4.1307618782      -13.4649175688  CLST          15          1.0000000000
        45        15  TIP3  H2           -8.4968231879       -4.5423150902      -12.0552211521  CLST          15          1.0000000000
        46        16  TIP3  OH2          -3.8347850398      -12.7715882588       -6.2210760945  CLST          16          1.0000000000
        47        16  TIP3  H1           -4.2799565901      -12.8648810130       -5.3205598692  CLST          16          1.0000000000
        48        16  TIP3  H2           -2.9041482953      -12.9450187050       -5.9063097903  CLST          16          1.0000000000
        49        17  TIP3  OH2           4.7234930459      -13.4869335965       -8.5860071993  CLST          17          1.0000000000
        50        17  TIP3  H1            5.2738110816      -13.7890850334       -7.8464517780  CLST          17          1.0000000000
        51        17  TIP3  H2            3.8877074974      -13.4491543476       -8.0685779022  CLST          17          1.0000000000
        52        18  TIP3  OH2         -11.6034542642       -6.7099277177       -1.5124715562  CLST          18          1.0000000000
        53        18  TIP3  H1          -11.9453173665       -5.8301685542       -1.9298070859  CLST          18          1.0000000000
        54        18  TIP3  H2          -11.7037277782       -7.1676793663       -2.4375150724  CLST          18          1.0000000000
        55        19  TIP3  OH2          11.0167373840        0.0795074393        9.5305988146  CLST          19          1.0000000000
        56        19  TIP3  H1           10.4898836876       -0.7088932527        9.7322839324  CLST          19          1.0000000000
        57        19  TIP3  H2           11.0447448733       -0.0262588321        8.5739702230  CLST          19          1.0000000000
        58        20  TIP3  OH2         -13.3925490203        1.4631288768        2.8421124984  CLST          20          1.0000000000
        59        20  TIP3  H1          -13.3237744157        1.1748717546        1.8816843530  CLST          20          1.0000000000
        60        20  TIP3  H2          -14.3018577573        1.6903681797        2.8266418853  CLST          20          1.0000000000
        61        21  TIP3  OH2         -10.1696248865       12.6943089784       -5.3001476210  CLST          21          1.0000000000
        62        21  TIP3  H1           -9.9523157737       13.5869795199       -5.1838964527  CLST          21          1.0000000000
        63        21  TIP3  H2           -9.4915456347       12.4407255955       -5.8891006055  CLST          21          1.0000000000
        64        22  TIP3  OH2           2.7926436731       12.1505847058       -6.4808105547  CLST          22          1.0000000000
        65        22  TIP3  H1            3.0848520868       11.2375266705       -6.2826227763  CLST          22          1.0000000000
        66        22  TIP3  H2            3.2182203560       12.5902409254       -5.7031841693  CLST          22          1.0000000000
        67        23  TIP3  OH2           5.5760869102       -1.8144189044       11.4586010966  CLST          23          1.0000000000
        68        23  TIP3  H1            5.1893959317       -2.5711632792       10.9575570292  CLST          23          1.0000000000
        69        23  TIP3  H2            5.0745249938       -1.0885523040       11.1193533887  CLST          23          1.0000000000
        70        24  TIP3  OH2          -0.1277988274        1.1064069465        4.4664907358  CLST          24          1.0000000000
        71        24  TIP3  H1            0.5458715556        0.9915699314        5.1258972048  CLST          24          1.0000000000
        72        24  TIP3  H2           -0.8685399495        0.5550953933        4.8527097189  CLST          24          1.0000000000
        73        25  TIP3  OH2           3.2996426378        1.8964949557       -2.6237514240  CLST          25          1.0000000000
        74        25  TIP3  H1            3.7448827641        1.5137163680       -1.8638474266  CLST          25          1.0000000000
        75        25  TIP3  H2            3.6037480015        2.8553920045       -2.6233022999  CLST          25          1.0000000000
        76        26  TIP3  OH2          11.3280989859        5.5242737084       -6.7004030020  CLST          26          1.0000000000
        77        26  TIP3  H1           10.4748772884        5.3066876883       -7.1407313288  CLST          26          1.0000000000
        78        26  TIP3  H2           11.1309029788        6.2631863155       -6.1222699549  CLST          26          1.0000000000
        79        27  TIP3  OH2         -10.2565397456        7.3866034467       -5.4515416523  CLST          27          1.0000000000
        80        27  TIP3  H1          -10.4755605359        7.6992382271       -4.5510019658  CLST          27          1.0000000000
        81        27  TIP3  H2          -10.6919932757        7.8804938750       -6.0475090835  CLST          27          1.0000000000
        82        28  TIP3  OH2          -4.1812938662      -10.3279398324       -6.8252209100  CLST          28          1.0000000000
        83        28  TIP3  H1           -4.2142341038      -11.3129198090       -6.5251535884  CLST          28          1.0000000000
        84        28  TIP3  H2           -5.1333334575      -10.1282052119       -6.5379060248  CLST          28          1.0000000000
        85        29  TIP3  OH2         -10.7256640456        7.5474664388       -2.5812515439  CLST          29          1.0000000000
        86        29  TIP3  H1          -10.0734344411        8.0984103628       -2.0465782109  CLST          29          1.0000000000
        87        29  TIP3  H2          -11.5440449486        8.0402965625       -2.3305882851  CLST          29          1.0000000000
        88        30  TIP3  OH2           8.8817846516      -10.4409373421       -2.1221313510  CLST          30          1.0000000000
        89        30  TIP3  H1            9.3802990967      -11.1320084996       -1.6372575743  CLST          30          1.0000000000
        90        30  TIP3  H2            8.3260964921      -10.9839839997       -2.7048816555  CLST          30          1.0000000000
        91        31  TIP3  OH2          -9.6943498671       -1.2759594668      -13.1057615688  CLST          31          1.0000000000
        92        31  TIP3  H1           -9.6503226415       -2.2284577390      -12.9051541575  CLST          31          1.0000000000
        93        31  TIP3  H2           -9.6377982575       -0.8938837342      -12.1912810222  CLST          31          1.0000000000
        94        32  TIP3  OH2          -8.7419270085       -6.5176964062        7.0435459085  CLST          32          1.0000000000
        95        32  TIP3  H1           -9.7002925406       -6.4983650679        6.8452883729  CLST          32          1.0000000000
        96        32  TIP3  H2           -8.5106654821       -5.7927567143        6.3655832612  CLST          32          1.0000000000
        97        33  TIP3  OH2          11.7034787754       -8.9158211653        8.8465557752  CLST          33          1.0000000000
        98        33  TIP3  H1           11.8113856340       -9.8346020165        9.1793974160  CLST          33          1.0000000000
        99        33  TIP3  H2           11.5186559642       -8.4347922594        9.6533641056  CLST          33          1.0000000000
       100        34  TIP3  OH2           4.2300830306       -3.8685569872        2.8369327683  CLST          34          1.0000000000
       101        34  TIP3  H1            3.6482307966       -4.1058903983        2.0904192643  CLST          34          1.0000000000
       102        34  TIP3  H2            4.1687654740       -4.6324265705        3.4370933849  CLST          34          1.0000000000
       103        35  TIP3  OH2           6.2174794571       -0.9234465402        4.5571532484  CLST          35          1.0000000000
       104        35  TIP3  H1            5.3277873793       -0.8950574040        4.9262939989  CLST          35          1.0000000000
       105        35  TIP3  H2            6.7476442571       -0.3657078260        5.2318806325  CLST          35          1.0000000000
       106        36  TIP3  OH2          -1.5249016019        1.3763787843        2.2461461994  CLST          36          1.0000000000
       107        36  TIP3  H1           -2.1762619008        0.9297754076        2.8012364409  CLST          36          1.0000000000
       108        36  TIP3  H2           -0.8327464776        1.3646347979        2.9478703209  CLST          36          1.0000000000
       109        37  TIP3  OH2          -4.3576618666       -8.2800767942      -12.9693452769  CLST          37          1.0000000000
       110        37  TIP3  H1           -5.0747170412       -8.4653484620      -12.3487176982  CLST          37          1.0000000000
       111        37  TIP3  H2           -3.9644458899       -9.1395816748      -13.2631266125  CLST          37          1.0000000000
       112        38  TIP3  OH2          -3.1230777559        2.0562770294       -4.3788201308  CLST          38          1.0000000000
       113        38  TIP3  H1           -2.9303928611        2.9439298761       -4.8247110791  CLST          38          1.0000000000
       114        38  TIP3  H2           -3.4570489639        1.6052722655       -5.2002081196  CLST          38          1.0000000000
       115        39  TIP3  OH2           1.7212016532      -10.9792681442        2.0570311483  CLST          39          1.0000000000
       116        39  TIP3  H1            1.5401901013      -11.5494462845        2.8361730675  CLST          39          1.0000000000
       117        39  TIP3  H2            0.8055640222      -10.5873082770        1.9188681025  CLST          39          1.0000000000
       118        40  TIP3  OH2          -6.9827226617       12.4780105859        8.2947671105  CLST          40          1.0000000000
       119        40  TIP3  H1           -7.9097013170       12.8593909550        8.0362479478  CLST          40          1.0000000000
       120        40  TIP3  H2           -6.4749459524       12.9092841002        7.5875193162  CLST          40          1.0000000000
       121        41  TIP3  OH2           9.6953102691       -2.1646446611      -11.0459459602  CLST          41          1.0000000000
       122        41  TIP3  H1            9.0054307652       -2.7852989804      -10.6860542134  CLST          41          1.0000000000
       123        41  TIP3  H2            9.4378645765       -1.4244766967      -10.4857812006  CLST          41          1.0000000000
       124        42  TIP3  OH2           9.6980065546       10.2627527452      -10.5903223444  CLST          42          1.0000000000
       125        42  TIP3  H1           10.5595174508       10.0250361834      -10.1808835159  CLST          42          1.0000000000
       126        42  TIP3  H2           10.0389210392       10.4029204248      -11.5133587992  CLST          42          1.0000000000
       127        43  TIP3  OH2          11.9986835666       12.6692051540        7.5621036058  CLST          43          1.0000000000
       128        43  TIP3  H1           12.5324549277       13.3688813880        7.8525369837  CLST          43          1.0000000000
       129        43  TIP3  H2           12.4883292335       11.8822937624        7.8209814842  CLST          43          1.0000000000
       130        44  TIP3  OH2           7.6071759524        0.9729424278        5.9906046226  CLST          44          1.0000000000
       131        44  TIP3  H1            7.8524480150        1.4282039727        6.8804934046  CLST          44          1.0000000000
       132        44  TIP3  H2            7.5618958794        1.8978060644        5.5943110260  CLST          44          1.0000000000
       133        45  TIP3  OH2           7.9703665299        9.2703334263        7.3428048343  CLST          45          1.0000000000
       134        45  TIP3  H1            7.6389738506        8.3571127754        7.5068882340  CLST          45          1.0000000000
       135        45  TIP3  H2            8.8636750135        9.2422067849        7.7789701040  CLST          45          1.0000000000
       136        46  TIP3  OH2          -5.6306927411       -3.2160150323      -13.0431236969  CLST          46          1.0000000000
       137        46  TIP3  H1           -5.4034983564       -4.1955490851      -13.2222904474  CLST          46          1.0000000000
       138        46  TIP3  H2           -4.8637323665       -3.1849948004      -12.3935002449  CLST          46          1.0000000000
       139        47  TIP3  OH2           1.5600060737       -6.5311183858      -10.9828679377  CLST          47          1.0000000000
       140        47  TIP3  H1            1.8019251357       -5.6125770370      -10.7165469258  CLST          47          1.0000000000
       141        47  TIP3  H2            1.5665265804       -6.4221283627      -11.9554514194  CLST          47          1.0000000000
       142        48  TIP3  OH2           5.0738708600        5.5979411486        1.1564282547  CLST          48          1.0000000000
       143        48  TIP3  H1            5.9044001899        5.2415521111        0.7744570493  CLST          48          1.0000000000
       144        48  TIP3  H2            5.3557395700        6.5490054337        1.1785526958  CLST          48          1.0000000000
       145        49  TIP3  OH2          -3.2216527772      -10.5326445771      -13.7342631817  CLST          49          1.0000000000
       146        49  TIP3  H1           -2.6829638434      -10.8745736520      -13.0374447704  CLST          49          1.0000000000
       147        49  TIP3  H2           -3.8913923572      -11.2446738192      -13.8011528638  CLST          49          1.0000000000
       148        50  TIP3  OH2           2.7902291008        3.8423363225        5.8634045504  CLST          50          1.0000000000
       149        50  TIP3  H1            1.9730513482        4.2269084748        6.2488333825  CLST          50          1.0000000000
       150        50  TIP3  H2            2.5634103860        3.7243274183        4.8968058937  CLST          50          1.0000000000
       151        51  TIP3  OH2          -6.3975128387      -10.0898151680       -4.6222435434  CLST          51          1.0000000000
       152        51  TIP3  H1           -6.3805062940       -9.8800101921       -3.6439442697  CLST          51          1.0000000000
       153        51  TIP3  H2           -6.2981940768      -11.0635881632       -4.6739863074  CLST          51          1.0000000000
       154        52  TIP3  OH2           9.1368464344       -5.6557757776       -0.1750364088  CLST          52          1.0000000000
       155        52  TIP3  H1            9.3924746721       -5.3307355773       -1.0997174241  CLST          52          1.0000000000
       156        52  TIP3  H2            8.8925704158       -4.7655209645        0.2186030433  CLST          52          1.0000000000
       157        53  TIP3  OH2          -9.6812325388        9.9386877335      -12.4944690717  CLST          53          1.0000000000
       158        53  TIP3  H1           -9.7481237537       10.3366385429      -13.2452213846  CLST          53          1.0000000000
       159        53  TIP3  H2           -8.7893420751        9.3033432303      -12.4564812539  CLST          53          1.0000000000
       160        54  TIP3  OH2           0.5419460054       -2.9604362249       -9.5441026981  CLST          54          1.0000000000
       161        54  TIP3  H1            1.4082163893       -3.1442760274       -9.9666464753  CLST          54          1.0000000000
       162        54  TIP3  H2            0.2159658472       -2.3779078608      -10.3175682163  CLST          54          1.0000000000
       163        55  TIP3  OH2           2.8308224981       -4.0665649760      -14.7112816758  CLST          55          1.0000000000
       164        55  TIP3  H1            3.2155701917       -4.8929404463      -14.4090016063  CLST          55          1.0000000000
       165        55  TIP3  H2            2.7506779291       -3.9388622296      -15.6307685384  CLST          55          1.0000000000
       166        56  TIP3  OH2          -9.9427746031       11.2315161778        5.7509715627  CLST          56          1.0000000000
       167        56  TIP3  H1           -9.9415416559       10.4042178702        6.3112127090  CLST          56          1.0000000000
       168        56  TIP3  H2          -10.3453946857       10.8480211229        4.9433980967  CLST          56          1.0000000000
       169        57  TIP3  OH2           1.6173437614      -13.4425135233        0.3277644365  CLST          57          1.0000000000
       170        57  TIP3  H1            1.8630101358      -12.4943008343        0.5122065470  CLST          57          1.0000000000
       171        57  TIP3  H2            2.4691979462      -13.6675285811       -0.0627965607  CLST          57          1.0000000000
       172        58  TIP3  OH2         -13.0926662628       10.5593609101        6.9628189114  CLST          58          1.0000000000
       173        58  TIP3  H1          -12.5587704833       11.2757180227        6.5777305925  CLST          58          1.0000000000
       174        58  TIP3  H2          -12.7655637364       10.5515043072        7.8908098624  CLST          58          1.0000000000
       175        59  TIP3  OH2         -11.6629123939       -2.7030714752        5.4073043732  CLST          59          1.0000000000
       176        59  TIP3  H1          -11.9749940399       -2.5073571885        6.3310937410  CLST          59          1.0000000000
       177        59  TIP3  H2          -11.5761123624       -1.7457389667        5.1056980722  CLST          59          1.0000000000
       178        60  TIP3  OH2           1.3093524991        9.5593563260        8.5787559419  CLST          60          1.0000000000
       179        60  TIP3  H1            0.4734509581        8.9858675463        8.4246924308  CLST          60          1.0000000000
       180        60  TIP3  H2            1.8315401025        8.7630970679        8.8092680240  CLST          60          1.0000000000
       181        61  TIP3  OH2           2.7142177380       -0.6751171093       -5.2925773942  CLST          61          1.0000000000
       182        61  TIP3  H1            3.1768853070       -1.5703664969       -5.4265851744  CLST          61          1.0000000000
       183        61  TIP3  H2            2.0397603405       -0.7948794121       -6.0006444085  CLST          61          1.0000000000
       184        62  TIP3  OH2           7.8968700576        8.4019921882       12.5777325738  CLST          62          1.0000000000
       185        62  TIP3  H1            8.1688432631        7.5400625364       12.2417147393  CLST          62          1.0000000000
       186        62  TIP3  H2            7.9914412459        8.9788942925       11.7955650093  CLST          62          1.0000000000
       187        63  TIP3  OH2           4.5611123535       -6.9217892900      -10.2584893070  CLST          63          1.0000000000
       188        63  TIP3  H1            3.6785352330       -7.1109451400      -10.6369223142  CLST          63          1.0000000000
       189        63  TIP3  H2            5.1010855870       -7.4025342811      -10.9930040631  CLST          63          1.0000000000
       190        64  TIP3  OH2          -2.4288840407       11.7914669075        5.3951642685  CLST          64          1.0000000000
       191        64  TIP3  H1           -2.4718629749       10.7847119106        5.4553646238  CLST          64          1.0000000000
       192        64  TIP3  H2           -1.6966698895       11.7748539071        6.1363553513  CLST          64          1.0000000000
       193        65  TIP3  OH2          11.0358234743       -4.3476170265       -5.4281511049  CLST          65          1.0000000000
       194        65  TIP3  H1           11.1991874731       -3.9148497043       -6.3596195928  CLST          65          1.0000000000
       195        65  TIP3  H2           11.3168365100       -3.4601681416       -4.9949425687  CLST          65          1.0000000000
       196        66  TIP3  OH2           6.1702421297       -9.9964274875        9.2781784173  CLST          66          1.0000000000
       197        66  TIP3  H1            5.4385570552       -9.7827407158        8.6413381304  CLST          66          1.0000000000
       198        66  TIP3  H2            6.8979681212       -9.4384486240        8.9559635552  CLST          66          1.0000000000
       199        67  TIP3  OH2         -11.6095862823       -7.5359883678       -3.9054380154  CLST          67          1.0000000000
       200        67  TIP3  H1          -10.7992274222       -7.0695817734       -4.2285292979  CLST          67          1.0000000000
       201        67  TIP3  H2          -11.6990629906       -8.2392598308       -4.5341582059  CLST          67          1.0000000000
       202        68  TIP3  OH2          -0.7586804055       -5.3365201264        5.2789709742  CLST          68          1.0000000000
       203        68  TIP3  H1            0.2320951972       -5.3638208353        5.4938570339  CLST          68          1.0000000000
       204        68  TIP3  H2           -1.0091989366       -5.3245818200        6.2582573744  CLST          68          1.0000000000
       205        69  TIP3  OH2           7.9766763130       11.7038241588       -8.8617565365  CLST          69          1.0000000000
       206        69  TIP3  H1            8.5636681582       11.3230949065       -9.5924250973  CLST          69          1.0000000000
       207        69  TIP3  H2            8.7305115457       11.9553646234       -8.2533312353  CLST          69          1.0000000000
       208        70  TIP3  OH2          -1.1747009410      -12.5495171713       -0.6362746376  CLST          70          1.0000000000
       209        70  TIP3  H1           -0.1972870661      -12.5465260559       -0.6418302785  CLST          70          1.0000000000
       210        70  TIP3  H2           -1.2515969931      -12.9549740599        0.2983659349  CLST          70          1.0000000000
       211        71  TIP3  OH2         -10.2137776545       -7.4165582892        2.0004285773  CLST          71          1.0000000000
       212        71  TIP3  H1          -10.7801015455       -6.7315828638        2.3872891502  CLST          71          1.0000000000
       213        71  TIP3  H2          -10.6638481437       -7.8753713292        1.2663330738  CLST          71          1.0000000000
       214        72  TIP3  OH2           0.2266953689        1.9962812751       -1.5418676575  CLST          72          1.0000000000
       215        72  TIP3  H1           -0.1988403160        1.0549490149       -1.5964711438  CLST          72          1.0000000000
       216        72  TIP3  H2            1.0747379390        1.7325217846       -2.0274436319  CLST          72          1.0000000000
       217        73  TIP3  OH2          -9.6482524601       13.1319073186        7.4994041346  CLST          73          1.0000000000
       218        73  TIP3  H1           -9.7903310038       12.4074624028        6.7922453190  CLST          73          1.0000000000
       219        73  TIP3  H2          -10.2033805361       13.7673670280        6.8933385484  CLST          73          1.0000000000
       220        74  TIP3  OH2           6.4743867397       -2.7272837134       -3.7776919283  CLST          74          1.0000000000
       221        74  TIP3  H1            6.4623455468       -3.6732616614       -3.4187934259  CLST          74          1.0000000000
       222        74  TIP3  H2            7.3953561497       -2.5480903004       -3.4560000729  CLST          74          1.0000000000
       223        75  TIP3  OH2           2.8050400984      -13.3938553527       -6.5601221949  CLST          75          1.0000000000
       224        75  TIP3  H1            2.8946365903      -12.5249503498       -6.0203337732  CLST          75          1.0000000000
       225        75  TIP3  H2            2.7547356586      -13.8927976041       -5.6838988404  CLST          75          1.0000000000
       226        76  TIP3  OH2           3.9288345512       -9.8593711456        1.3522531402  CLST          76          1.0000000000
       227        76  TIP3  H1            4.1921933334       -8.9651543520        1.5380849190  CLST          76          1.0000000000
       228        76  TIP3  H2            3.0519055839      -10.0937579139        1.7334872362  CLST          76          1.0000000000
       229        77  TIP3  OH2          10.3522625497       -8.2572714487       -2.5684930544  CLST          77          1.0000000000
       230        77  TIP3  H1            9.7918715774       -9.0445238615       -2.4027095431  CLST          77          1.0000000000
       231        77  TIP3  H2           10.1407259186       -8.1135195890       -3.4986132344  CLST          77          1.0000000000
       232        78  TIP3  OH2          10.7257357018       11.8200647418       -7.8029831532  CLST          78          1.0000000000
       233        78  TIP3  H1           11.2946193162       11.0499701327       -8.0561739121  CLST          78          1.0000000000
       234        78  TIP3  H2           11.2719954038       12.4853715046       -8.0841688421  CLST          78          1.0000000000
       235        79  TIP3  OH2          12.7272928519        0.5824206232        1.0860801374  CLST          79          1.0000000000
       236        79  TIP3  H1           13.4470735391        0.6280617699        1.5789494610  CLST          79          1.0000000000
       237        79  TIP3  H2           12.0203927196        1.2113218861        1.3505303252  CLST          79          1.0000000000
       238        80  TIP3  OH2          -7.6161678100       -0.0058082298        6.6624263869  CLST          80          1.0000000000
       239        80  TIP3  H1           -7.6488490124        0.5895292952        5.8505025971  CLST          80          1.0000000000
       240        80  TIP3  H2           -6.6983972274       -0.3017365329        6.6628750753  CLST          80          1.0000000000
       241        81  TIP3  OH2          -7.4892918221      -11.0279371002        2.2752085654  CLST          81          1.0000000000
       242        81  TIP3  H1           -6.6525932194      -10.9878108078        1.6747108113  CLST          81          1.0000000000
       243        81  TIP3  H2           -6.9761537561      -11.1243357373        3.1258602042  CLST          81          1.0000000000
       244        82  TIP3  OH2          -1.5127929731       -9.9546133233       -6.4804965646  CLST          82          1.0000000000
       245        82  TIP3  H1           -2.4921001511       -9.8761644383       -6.4127882263  CLST          82          1.0000000000
       246        82  TIP3  H2           -1.3517645263      -10.8924837062       -6.2548255165  CLST          82          1.0000000000
       247        83  TIP3  OH2          12.3767130729       -8.4562581227        1.5784789716  CLST          83          1.0000000000
       248        83  TIP3  H1           12.6964065588       -7.9410299742        2.3744196709  CLST          83          1.0000000000
       249        83  TIP3  H2           11.4593032235       -8.1321251568        1.5611378681  CLST          83          1.0000000000
       250        84  TIP3  OH2          -3.6263712549       11.0567076906       -2.0137453822  CLST          84          1.0000000000
       251        84  TIP3  H1           -4.5479614205       10.9651464908       -2.4952539852  CLST          84          1.0000000000
       252        84  TIP3  H2           -3.6938852629       11.9001742031       -1.6576250682  CLST          84          1.0000000000
       253        85  TIP3  OH2           5.8240076389       -2.2073955111       -0.0864677068  CLST          85          1.0000000000
       254        85  TIP3  H1            5.7901482757       -1.5250783670        0.6206282956  CLST          85          1.0000000000
       255        85  TIP3  H2            6.6362698859       -2.6633156515        0.1867616359  CLST          85          1.0000000000
       256        86  TIP3  OH2           6.7237657975       -8.4488003954        5.8723887364  CLST          86          1.0000000000
       257        86  TIP3  H1            6.1036686541       -8.7922281747        6.5750916661  CLST          86          1.0000000000
       258        86  TIP3  H2            6.3342359985       -7.5035593626        5.8424531395  CLST          86          1.0000000000
       259        87  TIP3  OH2          -1.1692680996       -3.7119755459       10.5029371406  CLST          87          1.0000000000
       260        87  TIP3  H1           -0.7206724548       -4.1124399433       11.2769422798  CLST          87          1.0000000000
       261        87  TIP3  H2           -2.0990648867       -4.0222019943       10.6925092387  CLST          87          1.0000000000
       262        88  TIP3  OH2          -0.8267076106        4.4272351793       -8.0122463104  CLST          88          1.0000000000
       263        88  TIP3  H1           -1.2047254377        3.5057396607       -7.8209011392  CLST          88          1.0000000000
       264        88  TIP3  H2           -1.6163998121        4.9825056396       -8.2061329642  CLST          88          1.0000000000
       265        89  TIP3  OH2           3.4361435480        0.9418236184      -11.8843524994  CLST          89          1.0000000000
       266        89  TIP3  H1            3.3043447897        1.6486983266      -12.4727586692  CLST          89          1.0000000000
       267        89  TIP3  H2            3.7223469665        0.1935638410      -12.2827762058  CLST          89          1.0000000000
       268        90  TIP3  OH2           5.6819713580       11.0942050890       -5.3878232702  CLST          90          1.0000000000
       269        90  TIP3  H1            5.3222547381       11.8051047783       -4.7792065698  CLST          90          1.0000000000
       270        90  TIP3  H2            5.7375061429       11.7102173447       -6.1934032044  CLST          90          1.0000000000
       271        91  TIP3  OH2           5.8498378775       -7.9200192160      -12.3409523764  CLST          91          1.0000000000
       272        91  TIP3  H1            6.2113578750       -8.8326283023      -12.3011633318  CLST          91          1.0000000000
       273        91  TIP3  H2            6.7360682050       -7.4683110044      -12.2283502945  CLST          91          1.0000000000
       274        92  TIP3  OH2           9.8377555552       11.4688702005        2.4317872948  CLST          92          1.0000000000
       275        92  TIP3  H1           10.0320884103       11.7848078513        3.3321635242  CLST          92          1.0000000000
       276        92  TIP3  H2            9.5643849966       12.2941400523        1.9666051622  CLST          92          1.0000000000
       277        93  TIP3  OH2          -8.8291162567        7.1891520518        2.6547270365  CLST          93          1.0000000000
       278        93  TIP3  H1           -8.6078492680        8.1431414940        2.6809041970  CLST          93          1.0000000000
       279        93  TIP3  H2           -8.0702865573        6.7740984523        3.1261522435  CLST          93          1.0000000000
       280        94  TIP3  OH2         -14.1606494487        6.5144938952        6.6689174410  CLST          94          1.0000000000
       281        94  TIP3  H1          -13.6585001418        7.3408473623        6.4699369431  CLST          94          1.0000000000
       282        94  TIP3  H2          -14.3333356561        6.4015997072        5.6713451120  CLST          94          1.0000000000
       283        95  TIP3  OH2           9.6661060450        5.7538654629       -1.8106499351  CLST          95          1.0000000000
       284        95  TIP3  H1            9.6767216937        5.8266461982       -0.8118770050  CLST          95          1.0000000000
       285        95  TIP3  H2           10.5256665886        5.2166895590       -1.8401530191  CLST          95          1.0000000000
       286        96  TIP3  OH2           9.5320256165      -10.8760035011       11.1475837873  CLST          96          1.0000000000
       287        96  TIP3  H1           10.2099881441      -11.0896367990       10.5079324327  CLST          96          1.0000000000
       288        96  TIP3  H2            9.3155719068      -11.7488811023       11.5074959404  CLST          96          1.0000000000
       289        97  TIP3  OH2          -7.6692015673        6.9382299437        8.5315726447  CLST          97          1.0000000000
       290        97  TIP3  H1           -7.3440913445        6.0010828411        8.8544032965  CLST          97          1.0000000000
       291        97  TIP3  H2           -8.6369199690        6.6242801542        8.5390456711  CLST          97          1.0000000000
       292        98  TIP3  OH2           6.0637582589        0.5955964970       -3.5492831613  CLST          98          1.0000000000
       293        98  TIP3  H1            6.7519316958        0.2336820164       -2.8963629394  CLST          98          1.0000000000
       294        98  TIP3  H2            5.3078862652        0.0968394079       -3.1328038475  CLST          98          1.0000000000
       295        99  TIP3  OH2          -6.7738862314      -11.4772796943        4.9563014585  CLST          99          1.0000000000
       296        99  TIP3  H1           -7.2053901904      -11.2044133930        5.7622519842  CLST          99          1.0000000000
       297        99  TIP3  H2           -6.0482920890      -12.0569606540        5.2735777788  CLST          99          1.0000000000
       298       100  TIP3  OH2           2.4736729582        0.3806755638       -9.1995700374  CLST         100          1.0000000000
       299       100  TIP3  H1            2.5695904790        0.3902802233      -10.1738070077  CLST         100          1.0000000000
       300       100  TIP3  H2            3.1520930304        1.0701298332       -9.0992870980  CLST         100          1.0000000000
       301       101  TIP3  OH2          12.7067657853       -6.9241502353        3.8327538335  CLST         101          1.0000000000
       302       101  TIP3  H1           12.6351625446       -7.5872836580        4.5683459483  CLST         101          1.0000000000
       303       101  TIP3  H2           13.3382271073       -6.3218746757        4.1794631382  CLST         101          1.0000000000
       304       102  TIP3  OH2         -12.1387584748       10.3822047062        1.2162297278  CLST         102          1.0000000000
       305       102  TIP3  H1          -12.8185315090        9.9335389301        1.8610948279  CLST         102          1.0000000000
       306       102  TIP3  H2          -12.6484107200        9.9698688855        0.4313430650  CLST         102          1.0000000000
       307       103  TIP3  OH2          -0.5284171807       -9.2594499331        7.7026970985  CLST         103          1.0000000000
       308       103  TIP3  H1            0.1136958745       -9.3810093321        8.4580751826  CLST         103          1.0000000000
       309       103  TIP3  H2           -1.1473777961      -10.0347209722        7.8686378251  CLST         103          1.0000000000
       310       104  TIP3  OH2          -4.3400591457      -11.9789462534        9.9944145397  CLST         104          1.0000000000
       311       104  TIP3  H1           -4.9037647338      -11.6110606741       10.7847848506  CLST         104          1.0000000000
       312       104  TIP3  H2           -4.9626240650      -12.5365637175        9.5346070437  CLST         104          1.0000000000
       313       105  TIP3  OH2          -5.1271055998       10.6123737760      -11.5494060557  CLST         105          1.0000000000
       314       105  TIP3  H1           -4.6406896503       11.0538907093      -12.3724784861  CLST         105          1.0000000000
       315       105  TIP3  H2           -5.7769977993       10.1017546784      -12.0018809588  CLST         105          1.0000000000
       316       106  TIP3  OH2           7.5858619175       -8.0420546916       -1.4219553707  CLST         106          1.0000000000
       317       106  TIP3  H1            8.3504935641       -7.4755397797       -1.2499051627  CLST         106          1.0000000000
       318       106  TIP3  H2            7.8768663818       -8.9531928690       -1.4968008719  CLST         106          1.0000000000
       319       107  TIP3  OH2          -8.3044575547       -4.8270691904        5.1675800588  CLST         107          1.0000000000
       320       107  TIP3  H1           -8.9053989418       -4.2778922100        4.6384425532  CLST         107          1.0000000000
       321       107  TIP3  H2           -7.4362994965       -4.5298638486        4.7605454500  CLST         107          1.0000000000
       322       108  TIP3  OH2         -10.4450136793        2.0056276516        9.5120339334  CLST         108          1.0000000000
       323       108  TIP3  H1           -9.4769003463        1.7304940526        9.4473802792  CLST         108          1.0000000000
       324       108  TIP3  H2          -10.8653185602        1.1613882914        9.8264316919  CLST         108          1.0000000000
       325       109  TIP3  OH2           2.2685372066        7.0391972089        8.7080305149  CLST         109          1.0000000000
       326       109  TIP3  H1            1.6237614601        6.5552140955        9.2111880092  CLST         109          1.0000000000
       327       109  TIP3  H2            3.0798141019        6.5244939620        8.7545823231  CLST         109          1.0000000000
       328       110  TIP3  OH2           1.6334370573       12.4159502590      -11.3129339102  CLST         110          1.0000000000
       329       110  TIP3  H1            2.2789006391       12.9465445370      -10.8893420550  CLST         110          1.0000000000
       330       110  TIP3  H2            1.0857174317       12.2491601423      -10.5215608431  CLST         110          1.0000000000
       331       111  TIP3  OH2          11.8614831463      -11.6202876204        9.4951425746  CLST         111          1.0000000000
       332       111  TIP3  H1           12.7502473723      -12.0008538538        9.6677008454  CLST         111          1.0000000000
       333       111  TIP3  H2           11.5568485218      -12.4720241055        9.0713271842  CLST         111          1.0000000000
       334       112  TIP3  OH2           6.4174533970       -0.2762785716        1.6771551579  CLST         112          1.0000000000
       335       112  TIP3  H1            7.1509911972        0.3761183162        1.8947128315  CLST         112          1.0000000000
       336       112  TIP3  H2            6.1481959639       -0.4611319933        2.5930699025  CLST         112          1.0000000000
       337       113  TIP3  OH2         -12.8938952981        0.9523501222        0.0240659203  CLST         113          1.0000000000
       338       113  TIP3  H1          -13.4746486940        0.1049994568       -0.1284889709  CLST         113          1.0000000000
       339       113  TIP3  H2          -12.3204986465        0.8626664758       -0.7631533814  CLST         113          1.0000000000
       340       114  TIP3  OH2         -13.7963193694        3.5385689441       -0.1699120017  CLST         114          1.0000000000
       341       114  TIP3  H1          -13.5733052780        2.5861186996        0.0241483980  CLST         114          1.0000000000
       342       114  TIP3  H2          -13.2860022135        3.5976590913       -1.0127853859  CLST         114          1.0000000000
       343       115  TIP3  OH2          -8.9636101963        0.3540860144      -10.8788851397  CLST         115          1.0000000000
       344       115  TIP3  H1           -8.2666280729        0.8348400973      -11.4301574589  CLST         115          1.0000000000
       345       115  TIP3  H2           -9.3452754202        1.2284056305      -10.6215244419  CLST         115          1.0000000000
       346       116  TIP3  OH2           6.8847921745       -5.7904419226        2.1080174035  CLST         116          1.0000000000
       347       116  TIP3  H1            7.7195393023       -6.0368451609        1.6961379261  CLST         116          1.0000000000
       348       116  TIP3  H2            6.8117338608       -4.8416791521        2.1901971397  CLST         116          1.0000000000
       349       117  TIP3  OH2          -0.8356639348        0.0048302675       12.5251416793  CLST         117          1.0000000000
       350       117  TIP3  H1           -0.1586974945       -0.5176131309       12.9971562023  CLST         117          1.0000000000
       351       117  TIP3  H2           -0.8779254463        0.7704444414       13.0897338739  CLST         117          1.0000000000
       352       118  TIP3  OH2           0.1194977547       -9.6933300665        5.0698186588  CLST         118          1.0000000000
       353       118  TIP3  H1           -0.0674793355       -9.5768117254        6.0368731249  CLST         118          1.0000000000
       354       118  TIP3  H2           -0.3134798597       -8.9403658220        4.6097937172  CLST         118          1.0000000000
       355       119  TIP3  OH2          -9.2757500983      -10.5857111599       -8.8084046383  CLST         119          1.0000000000
       356       119  TIP3  H1           -9.3294405228      -11.0259338978       -9.6967348448  CLST         119          1.0000000000
       357       119  TIP3  H2           -8.8738141826       -9.7805844613       -9.1216409889  CLST         119          1.0000000000
       358       120  TIP3  OH2           9.5776975001       -7.9505300234        1.3008129385  CLST         120          1.0000000000
       359       120  TIP3  H1            8.9039439499       -8.5151992112        0.9275281672  CLST         120          1.0000000000
       360       120  TIP3  H2            9.5523679358       -7.2588975878        0.5672139431  CLST         120          1.0000000000
       361       121  TIP3  OH2          -5.7312400517       -0.2170618689       -8.0272957499  CLST         121          1.0000000000
       362       121  TIP3  H1           -5.5672442550        0.0056194403       -8.9975377507  CLST         121          1.0000000000
       363       121  TIP3  H2           -4.9640295272       -0.8547145979       -7.9432631405  CLST         121          1.0000000000
       364       122  TIP3  OH2          10.5013901309       12.0297728276        5.1779666844  CLST         122          1.0000000000
       365       122  TIP3  H1            9.6735812625       12.5341464215        5.5127024358  CLST         122          1.0000000000
       366       122  TIP3  H2           11.0449551161       12.2031783982        5.9635917230  CLST         122          1.0000000000
       367       123  TIP3  OH2          -7.5377806940       -5.6028177208      -11.0286893896  CLST         123          1.0000000000
       368       123  TIP3  H1           -6.7198499852       -6.0589041828      -11.2099541108  CLST         123          1.0000000000
       369       123  TIP3  H2           -7.4095418018       -5.4375185956      -10.0444053065  CLST         123          1.0000000000
       370       124  TIP3  OH2          -6.0871993398       -8.5847801657      -10.7132793874  CLST         124          1.0000000000
       371       124  TIP3  H1           -5.2764422662       -8.8884853424      -10.1910867295  CLST         124          1.0000000000
       372       124  TIP3  H2           -6.7099052784       -8.4176829424       -9.9548463484  CLST         124          1.0000000000
       373       125  TIP3  OH2         -13.4250884599        4.2573096163        8.0997973213  CLST         125          1.0000000000
       374       125  TIP3  H1          -13.6479659491        3.4938733550        7.6130240057  CLST         125          1.0000000000
       375       125  TIP3  H2          -13.8096018865        5.0263423320        7.6022647569  CLST         125          1.0000000000
       376       126  TIP3  OH2          -7.1674717792      -10.6782459621      -12.0715102476  CLST         126          1.0000000000
       377       126  TIP3  H1           -6.3263778844      -11.2034682765      -11.8681680309  CLST         126          1.0000000000
       378       126  TIP3  H2           -6.8385995923       -9.8429524448      -11.6078342597  CLST         126          1.0000000000
       379       127  TIP3  OH2          -7.4429627525      -11.6080952416       -7.2315163295  CLST         127          1.0000000000
       380       127  TIP3  H1           -7.9264558479      -12.4502264122       -7.1409138680  CLST         127          1.0000000000
       381       127  TIP3  H2           -8.0205713977      -11.1899377512       -7.9138944820  CLST         127          1.0000000000
       382       128  TIP3  OH2           9.9769017166        0.7696978974       -2.3509563139  CLST         128          1.0000000000
       383       128  TIP3  H1            9.0949653935        0.3510070749       -2.0970811519  CLST         128          1.0000000000
       384       128  TIP3  H2            9.6799074261        1.4007320689       -3.0460144326  CLST         128          1.0000000000
       385       129  TIP3  OH2          -7.6807943212        9.5861022644        0.8339767153  CLST         129          1.0000000000
       386       129  TIP3  H1           -6.8232865102       10.1086120786        1.0989088598  CLST         129          1.0000000000
       387       129  TIP3  H2           -7.1197360418        8.7465725024        0.6017067158  CLST         129          1.0000000000
       388       130  TIP3  OH2          -4.0526950554        3.9749484252        9.9472745580  CLST         130          1.0000000000
       389       130  TIP3  H1           -3.4148619371        4.7310332561        9.8000174089  CLST         130          1.0000000000
       390       130  TIP3  H2           -3.6554460527        3.4325643682       10.6908897899  CLST         130          1.0000000000
       391       131  TIP3  OH2           7.8179365533       -3.7195481893       -9.7547355162  CLST         131          1.0000000000
       392       131  TIP3  H1            7.7374749749       -2.9735299076       -9.1009654719  CLST         131          1.0000000000
       393       131  TIP3  H2            6.8078649713       -3.8416813013       -9.8133824788  CLST         131          1.0000000000
       394       132  TIP3  OH2         -11.4802268622       11.2982301586       12.3763913194  CLST         132          1.0000000000
       395       132  TIP3  H1          -11.1523562692       12.0131403348       11.8743962575  CLST         132          1.0000000000
       396       132  TIP3  H2          -12.0467044217       11.5928045232       12.9898681192  CLST         132          1.0000000000
       397       133  TIP3  OH2          10.2370424359        9.4229642464        8.5713028742  CLST         133          1.0000000000
       398       133  TIP3  H1           10.3011886860        9.2641476679        9.5193048894  CLST         133          1.0000000000
       399       133  TIP3  H2           11.2022982796        9.8142783937        8.5068843943  CLST         133          1.0000000000
       400       134  TIP3  OH2          -7.6454176019        5.7853976470       -5.9695081436  CLST         134          1.0000000000
       401       134  TIP3  H1           -8.4029304538        6.3695397281       -5.8590785370  CLST         134          1.0000000000
       402       134  TIP3  H2           -7.2891098895        5.7469573951       -5.0327569707  CLST         134          1.0000000000
       403       135  TIP3  OH2          10.8457462509      -11.3290658885      -13.2104540081  CLST         135          1.0000000000
       404       135  TIP3  H1           11.1020757569      -10.5490337604      -12.6675107884  CLST         135          1.0000000000
       405       135  TIP3  H2           10.9372058409      -11.0486781487      -14.0622047961  CLST         135          1.0000000000
       406       136  TIP3  OH2          -4.3304952656        1.8708979602       -6.9343113496  CLST         136          1.0000000000
       407       136  TIP3  H1           -4.9170143399        1.1120350057       -7.2827546753  CLST         136          1.0000000000
       408       136  TIP3  H2           -5.0259117793        2.2940515500       -6.3641344760  CLST         136          1.0000000000
       409       137  TIP3  OH2          12.8933303585       10.1447580647        9.1278253531  CLST         137          1.0000000000
       410       137  TIP3  H1           12.8262027397        9.9427988521       10.0825709079  CLST         137          1.0000000000
       411       137  TIP3  H2           13.6897360512        9.6472022436        8.8264049178  CLST         137          1.0000000000
       412       138  TIP3  OH2          -0.7842712764       -9.8513695113        1.5912365737  CLST         138          1.0000000000
       413       138  TIP3  H1           -1.0413519374       -9.6445748736        0.6661402800  CLST         138          1.0000000000
       414       138  TIP3  H2           -0.9766689915       -9.0791280015        2.1596843682  CLST         138          1.0000000000
       415       139  TIP3  OH2          -9.6169256654      -10.6971116083        4.4568945740  CLST         139          1.0000000000
       416       139  TIP3  H1          -10.3654186126      -10.7212949303        3.8462667162  CLST         139          1.0000000000
       417       139  TIP3  H2           -8.9982755660      -11.2445162541        3.9463847825  CLST         139          1.0000000000
       418       140  TIP3  OH2          -7.1032417871        3.4181688977       -0.3601792378  CLST         140          1.0000000000
       419       140  TIP3  H1           -6.3224644271        3.9658409765       -0.1083512343  CLST         140          1.0000000000
       420       140  TIP3  H2           -7.8380268530        4.0797000536       -0.4854715482  CLST         140          1.0000000000
       421       141  TIP3  OH2           2.0275563121       -4.5467006588       -3.7749712606  CLST         141          1.0000000000
       422       141  TIP3  H1            1.6745929391       -3.6934486478       -3.3090659220  CLST         141          1.0000000000
       423       141  TIP3  H2            2.7117836482       -4.0671476973       -4.2490922112  CLST         141          1.0000000000
       424       142  TIP3  OH2         -11.6677353514       -0.0181904391        4.8116258522  CLST         142          1.0000000000
       425       142  TIP3  H1          -11.8072223378        0.6467539764        5.5398115245  CLST         142          1.0000000000
       426       142  TIP3  H2          -11.9000647152        0.5804644636        4.0702027457  CLST         142          1.0000000000
       427       143  TIP3  OH2           9.3083362147       -5.8511831116       -8.2308816061  CLST         143          1.0000000000
       428       143  TIP3  H1            9.1789513116       -5.0391522972       -8.7981359602  CLST         143          1.0000000000
       429       143  TIP3  H2            9.9635624328       -6.4096861635       -8.7130896046  CLST         143          1.0000000000
       430       144  TIP3  OH2           3.1363922825       -3.0007811706        9.1623021163  CLST         144          1.0000000000
       431       144  TIP3  H1            2.3093779010       -2.6341419174        9.6102054216  CLST         144          1.0000000000
       432       144  TIP3  H2            3.1705278343       -2.2913101638        8.4787111537  CLST         144          1.0000000000
       433       145  TIP3  OH2         -10.2650260244       13.4830236154        3.2799488469  CLST         145          1.0000000000
       434       145  TIP3  H1          -10.6835068287       13.4485934103        2.3767743043  CLST         145          1.0000000000
       435       145  TIP3  H2           -9.8656075426       12.5909273102        3.1827465407  CLST         145          1.0000000000
       436       146  TIP3  OH2           9.1774671112        2.7737651091       -4.2408914126  CLST         146          1.0000000000
       437       146  TIP3  H1            8.9033172440        3.7401329272       -4.0943161568  CLST         146          1.0000000000
       438       146  TIP3  H2            8.4230289131        2.6496521861       -4.8728161561  CLST         146          1.0000000000
       439       147  TIP3  OH2         -10.9521312886       -0.2545079660       -4.0545175753  CLST         147          1.0000000000
       440       147  TIP3  H1          -10.0668938339       -0.6670529713       -4.2855966753  CLST         147          1.0000000000
       441       147  TIP3  H2          -11.3717281216       -0.5101573070       -4.9090909913  CLST         147          1.0000000000
       442       148  TIP3  OH2          -8.0479475338        1.3230121126        8.9149409704  CLST         148          1.0000000000
       443       148  TIP3  H1           -7.9163552571        1.0231579191        7.9606323846  CLST         148          1.0000000000
       444       148  TIP3  H2           -7.0319893254        1.3996034772        9.0234371806  CLST         148          1.0000000000
       445       149  TIP3  OH2           8.7691871473       -2.9349333172        0.7496337053  CLST         149          1.0000000000
       446       149  TIP3  H1            9.3478400712       -2.1275574068        0.7378403011  CLST         149          1.0000000000
       447       149  TIP3  H2            8.2694352358       -2.7792298618        1.5519459257  CLST         149          1.0000000000
       448       150  TIP3  OH2          -1.9798957380      -11.4656541710        8.4817268519  CLST         150          1.0000000000
       449       150  TIP3  H1           -2.8166932768      -11.6673931038        9.0009934593  CLST         150          1.0000000000
       450       150  TIP3  H2           -1.3310234715      -11.7755029509        9.2030772500  CLST         150          1.0000000000
       451       151  TIP3  OH2          -9.1885092741       -6.5107141245       -4.8823994909  CLST         151          1.0000000000
       452       151  TIP3  H1           -8.2129391162       -6.5774078453       -4.5656025138  CLST         151          1.0000000000
       453       151  TIP3  H2           -8.9961463065       -7.3526690599       -5.4355981572  CLST         151          1.0000000000
       454       152  TIP3  OH2           3.8990130298       -2.0235426780        4.9882851414  CLST         152          1.0000000000
       455       152  TIP3  H1            4.3316210225       -2.7639969946        5.4823322863  CLST         152          1.0000000000
       456       152  TIP3  H2            3.8667300433       -2.5089144563        4.1257605201  CLST         152          1.0000000000
       457       153  TIP3  OH2          -2.5930112372        4.8301560885      -14.1181735693  CLST         153          1.0000000000
       458       153  TIP3  H1           -1.7529779362        5.3123696840      -13.8249227642  CLST         153          1.0000000000
       459       153  TIP3  H2           -2.7313737127        4.4595522460      -13.2207488827  CLST         153          1.0000000000
       460       154  TIP3  OH2           4.4728859255       -6.8802758625        2.0523793146  CLST         154          1.0000000000
       461       154  TIP3  H1            5.3622281569       -6.5469922483        1.7579223976  CLST         154          1.0000000000
       462       154  TIP3  H2            3.7855712271       -6.4035456884        1.5971439865  CLST         154          1.0000000000
       463       155  TIP3  OH2           9.5731083327       -2.7114194227       10.2814680142  CLST         155          1.0000000000
       464       155  TIP3  H1            8.9530641640       -3.0739179016        9.6136733029  CLST         155          1.0000000000
       465       155  TIP3  H2           10.0539648994       -3.3591563332       10.6587911497  CLST         155          1.0000000000
       466       156  TIP3  OH2          -2.2429997089       11.2985053544       11.5024066063  CLST         156          1.0000000000
       467       156  TIP3  H1           -3.1123000136       11.6595450563       11.8186805565  CLST         156          1.0000000000
       468       156  TIP3  H2           -2.5519679246       10.3830519379       11.4787270265  CLST         156          1.0000000000
       469       157  TIP3  OH2           3.8773335412       -0.7304274943        7.4468482869  CLST         157          1.0000000000
       470       157  TIP3  H1            4.7251599015       -0.9480944066        7.9051808072  CLST         157          1.0000000000
       471       157  TIP3  H2            3.9280786732       -1.0844978671        6.5369927026  CLST         157          1.0000000000
       472       158  TIP3  OH2          10.6427729943        9.1118029264       13.2542794419  CLST         158          1.0000000000
       473       158  TIP3  H1            9.8656176421        8.6294560113       13.5961935971  CLST         158          1.0000000000
       474       158  TIP3  H2           10.1118220811        9.8591065125       12.9432829721  CLST         158          1.0000000000
       475       159  TIP3  OH2           0.3454766817      -12.2874175570        4.4394931300  CLST         159          1.0000000000
       476       159  TIP3  H1           -0.2274309807      -12.5544963369        5.2352039710  CLST         159          1.0000000000
       477       159  TIP3  H2            0.2153203638      -11.3149028752        4.6476133790  CLST         159          1.0000000000
       478       160  TIP3  OH2           7.3895506787       -3.5533190188        8.5840461827  CLST         160          1.0000000000
       479       160  TIP3  H1            7.0672734599       -3.5364719168        7.6652014265  CLST         160          1.0000000000
       480       160  TIP3  H2            6.9990520508       -2.6240310169        8.7200524855  CLST         160          1.0000000000
       481       161  TIP3  OH2          -2.5359992988       -2.2605742552        7.8655367776  CLST         161          1.0000000000
       482       161  TIP3  H1           -1.9033711709       -1.7749032242        8.4847910101  CLST         161          1.0000000000
       483       161  TIP3  H2           -3.3412271978       -2.1430472506        8.4650807391  CLST         161          1.0000000000
       484       162  TIP3  OH2          -0.7332612036        3.5930180382      -10.8154145512  CLST         162          1.0000000000
       485       162  TIP3  H1           -0.4465968351        4.4342147501      -11.2082595347  CLST         162          1.0000000000
       486       162  TIP3  H2           -0.7627259646        3.8199519412       -9.8530044527  CLST         162          1.0000000000
       487       163  TIP3  OH2         -10.0588525656        9.0712141403       11.1291997232  CLST         163          1.0000000000
       488       163  TIP3  H1          -11.2690828711        7.9320551828       11.2783428175  CLST         163          1.0000000000
       489       163  TIP3  H2          -10.5335290245        9.7681095847       12.0067385953  CLST         163          1.0000000000
       490       164  TIP3  OH2           3.9977938588      -10.3602439465       12.9875472755  CLST         164          1.0000000000
       491       164  TIP3  H1            4.4669581583       -9.5230358289       12.9508656518  CLST         164          1.0000000000
       492       164  TIP3  H2            4.7364931112      -10.9069439961       12.7099077672  CLST         164          1.0000000000
       493       165  TIP3  OH2         -12.1156215742       -5.4180026724        3.5323623495  CLST         165          1.0000000000
       494       165  TIP3  H1          -11.9195488837       -5.4815888000        4.5430715828  CLST         165          1.0000000000
       495       165  TIP3  H2          -13.0636026703       -5.3486247398        3.5957101191  CLST         165          1.0000000000
       496       166  TIP3  OH2          -1.5457738862       -6.4171602808      -10.4759048422  CLST         166          1.0000000000
       497       166  TIP3  H1           -0.5383883963       -6.6822939108      -10.4485121812  CLST         166          1.0000000000
       498       166  TIP3  H2           -1.8261400175       -7.3376754597      -10.3762648618  CLST         166          1.0000000000
       499       167  TIP3  OH2           7.9802264762       10.5859670154       -0.7475887145  CLST         167          1.0000000000
       500       167  TIP3  H1            8.5933865635        9.9970003184       -0.1762841810  CLST         167          1.0000000000
       501       167  TIP3  H2            8.4527677342       10.4346431521       -1.5920636898  CLST         167          1.0000000000
       502       168  TIP3  OH2          -0.7864430996      -13.3226030100        2.0022248888  CLST         168          1.0000000000
       503       168  TIP3  H1           -0.4185652101      -13.0693955734        2.8689065920  CLST         168          1.0000000000
       504       168  TIP3  H2            0.0677103006      -13.6437673179        1.6437183950  CLST         168          1.0000000000
       505       169  TIP3  OH2           5.0375693459        4.1364572544        3.2215447939  CLST         169          1.0000000000
       506       169  TIP3  H1            4.0824409471        3.9554303491        3.2624130696  CLST         169          1.0000000000
       507       169  TIP3  H2            5.0478997427        4.7647024682        2.4146415891  CLST         169          1.0000000000
       508       170  TIP3  OH2          -1.1697872618        4.2514206878        1.4834657218  CLST         170          1.0000000000
       509       170  TIP3  H1           -1.8300687590        4.9333645422        1.3557497197  CLST         170          1.0000000000
       510       170  TIP3  H2           -1.5412199964        3.3587034821        1.3052592859  CLST         170          1.0000000000
       511       171  TIP3  OH2          -2.9254971492        1.3390201325        7.3058956114  CLST         171          1.0000000000
       512       171  TIP3  H1           -2.5366927388        0.5873171385        6.7449838241  CLST         171          1.0000000000
       513       171  TIP3  H2           -2.0395977991        1.8257760550        7.4522748125  CLST         171          1.0000000000
       514       172  TIP3  OH2          -6.2699473243      -13.1748079268        8.0026199309  CLST         172          1.0000000000
       515       172  TIP3  H1           -6.5102726236      -13.9435653463        7.7212352945  CLST         172          1.0000000000
       516       172  TIP3  H2           -5.6037693891      -12.8181925313        7.3529582274  CLST         172          1.0000000000
       517       173  TIP3  OH2          10.1440592520      -12.7049544985        1.9444296843  CLST         173          1.0000000000
       518       173  TIP3  H1           10.4141534390      -12.5776720193        0.9647860537  CLST         173          1.0000000000
       519       173  TIP3  H2            9.2103125219      -12.6556957168        1.8804211546  CLST         173          1.0000000000
       520       174  TIP3  OH2          -0.0742277408        5.4836157706        9.7871879226  CLST         174          1.0000000000
       521       174  TIP3  H1           -0.1560813714        4.5337748589       10.1261628447  CLST         174          1.0000000000
       522       174  TIP3  H2           -0.9554161434        5.8594763191        9.9511382722  CLST         174          1.0000000000
       523       175  TIP3  OH2          -5.7528953804       10.2329310864       -3.4840816906  CLST         175          1.0000000000
       524       175  TIP3  H1           -5.3516291413        9.9245597623       -4.3281709615  CLST         175          1.0000000000
       525       175  TIP3  H2           -6.6665225798       10.1428373247       -3.9652052029  CLST         175          1.0000000000
       526       176  TIP3  OH2           6.7828671548        9.3739569492       -7.7885000035  CLST         176          1.0000000000
       527       176  TIP3  H1            7.1138113649       10.2427723963       -8.1066299124  CLST         176          1.0000000000
       528       176  TIP3  H2            6.2084449015        9.6096011101       -7.0346632225  CLST         176          1.0000000000
       529       177  TIP3  OH2          -3.7752015427      -11.3317960019       -1.5968370889  CLST         177          1.0000000000
       530       177  TIP3  H1           -3.2848148610      -11.9259700309       -0.9632544905  CLST         177          1.0000000000
       531       177  TIP3  H2           -4.4914046461      -11.0185864931       -0.9880269800  CLST         177          1.0000000000
       532       178  TIP3  OH2          10.7873085020       -9.0693541044      -11.4008330621  CLST         178          1.0000000000
       533       178  TIP3  H1           11.2973678769       -8.9246116022      -10.5883870703  CLST         178          1.0000000000
       534       178  TIP3  H2           10.6030277088       -8.1438633263      -11.6476296016  CLST         178          1.0000000000
       535       179  TIP3  OH2           6.4467424904       -1.0208228144        8.4562210090  CLST         179          1.0000000000
       536       179  TIP3  H1            6.2986280444       -0.3872569747        9.2201258431  CLST         179          1.0000000000
       537       179  TIP3  H2            6.8395535351       -0.3841289675        7.7549790889  CLST         179          1.0000000000
       538       180  TIP3  OH2          -7.5808423319        8.2017733458        6.0236514875  CLST         180          1.0000000000
       539       180  TIP3  H1           -7.3819392707        7.7982026433        6.9322051619  CLST         180          1.0000000000
       540       180  TIP3  H2           -8.5636638316        8.1592778991        6.1983603231  CLST         180          1.0000000000
       541       181  TIP3  OH2           5.9627333007      -12.8678680695       -0.3719251583  CLST         181          1.0000000000
       542       181  TIP3  H1            6.6955850646      -12.7147827696       -0.9575910899  CLST         181          1.0000000000
       543       181  TIP3  H2            6.2998318203      -12.9258305634        0.5678572761  CLST         181          1.0000000000
       544       182  TIP3  OH2          -1.8074732910       10.5226254623      -10.2798068268  CLST         182          1.0000000000
       545       182  TIP3  H1           -0.9435771232       10.7485912032       -9.7830639277  CLST         182          1.0000000000
       546       182  TIP3  H2           -2.4727891219       10.5566761142       -9.5947935662  CLST         182          1.0000000000
       547       183  TIP3  OH2          -5.3291938747        3.6452346172      -12.2553691317  CLST         183          1.0000000000
       548       183  TIP3  H1           -5.2091671370        3.3731442736      -11.2936370855  CLST         183          1.0000000000
       549       183  TIP3  H2           -6.2860481245        3.2863462983      -12.3263476995  CLST         183          1.0000000000
       550       184  TIP3  OH2           3.0225189599        8.4567978780       -2.4821740596  CLST         184          1.0000000000
       551       184  TIP3  H1            3.2759872912        7.8027002252       -1.8185040156  CLST         184          1.0000000000
       552       184  TIP3  H2            2.1142698777        8.1060699704       -2.6287008638  CLST         184          1.0000000000
       553       185  TIP3  OH2           7.4467243500        4.7230692860       12.1703067902  CLST         185          1.0000000000
       554       185  TIP3  H1            7.5872355474        3.7294767346       12.2267785004  CLST         185          1.0000000000
       555       185  TIP3  H2            6.9461311775        4.8583168221       13.0080145976  CLST         185          1.0000000000
       556       186  TIP3  OH2           3.9085164410        5.9937409098       -5.1149514493  CLST         186          1.0000000000
       557       186  TIP3  H1            4.1448454616        6.9064381081       -5.3249551635  CLST         186          1.0000000000
       558       186  TIP3  H2            3.9640119907        5.6422315212       -6.0561152942  CLST         186          1.0000000000
       559       187  TIP3  OH2           4.0890472245        1.6270155198       -5.5703017432  CLST         187          1.0000000000
       560       187  TIP3  H1            4.3161963244        1.6440979278       -4.6071891531  CLST         187          1.0000000000
       561       187  TIP3  H2            3.7151557532        0.6941314649       -5.4902392425  CLST         187          1.0000000000
       562       188  TIP3  OH2          -4.6423412964       -1.5596122805        4.8441829001  CLST         188          1.0000000000
       563       188  TIP3  H1           -4.7677445230       -0.7770265945        4.2917761297  CLST         188          1.0000000000
       564       188  TIP3  H2           -4.8262540095       -1.2037121247        5.7611883666  CLST         188          1.0000000000
       565       189  TIP3  OH2          -5.0542264693        3.5049547237      -15.1119560451  CLST         189          1.0000000000
       566       189  TIP3  H1           -5.0024708051        3.5459410457      -14.1498937258  CLST         189          1.0000000000
       567       189  TIP3  H2           -4.1629405758        3.8520802566      -15.3062155164  CLST         189          1.0000000000
       568       190  TIP3  OH2           7.2351425991       -5.6426428664        5.0612889092  CLST         190          1.0000000000
       569       190  TIP3  H1            7.0294243521       -6.0664211507        4.1874921983  CLST         190          1.0000000000
       570       190  TIP3  H2            8.2004545356       -5.7057727126        4.9451181032  CLST         190          1.0000000000
       571       191  TIP3  OH2         -11.0476591695       -4.7373414076       -6.5432831327  CLST         191          1.0000000000
       572       191  TIP3  H1          -10.2294779784       -4.4308563087       -6.9758755829  CLST         191          1.0000000000
       573       191  TIP3  H2          -10.8057982504       -5.5920292221       -6.1681787366  CLST         191          1.0000000000
       574       192  TIP3  OH2           8.8190428704       14.3124848835        1.9785701950  CLST         192          1.0000000000
       575       192  TIP3  H1            8.3173894483       14.1546241385        2.7317001839  CLST         192          1.0000000000
       576       192  TIP3  H2            9.3527553747       15.0606566405        2.1687272428  CLST         192          1.0000000000
       577       193  TIP3  OH2           6.0019796603      -12.2260058244       11.8232527333  CLST         193          1.0000000000
       578       193  TIP3  H1            6.6617614422      -12.9005259833       11.6984339099  CLST         193          1.0000000000
       579       193  TIP3  H2            6.2516017458      -11.6069685172       11.1037307747  CLST         193          1.0000000000
       580       194  TIP3  OH2          -6.2211061443       -4.3928953140       11.2253590276  CLST         194          1.0000000000
       581       194  TIP3  H1           -6.7192047298       -4.5388354046       12.0316553553  CLST         194          1.0000000000
       582       194  TIP3  H2           -6.9109585259       -4.0451767492       10.6204127500  CLST         194          1.0000000000
       583       195  TIP3  OH2          -7.4624872082        9.1848627215       10.2865764078  CLST         195          1.0000000000
       584       195  TIP3  H1           -8.3604345946        8.9262889510       10.6870988685  CLST         195          1.0000000000
       585       195  TIP3  H2           -7.7273399161        8.7373489427        9.4420289632  CLST         195          1.0000000000
       586       196  TIP3  OH2           6.1567377499      -12.2803776351       -5.8888202693  CLST         196          1.0000000000
       587       196  TIP3  H1            6.4124467768      -11.5854978570       -6.5174064548  CLST         196          1.0000000000
       588       196  TIP3  H2            5.2841768737      -11.8929962518       -5.6317790776  CLST         196          1.0000000000
       589       197  TIP3  OH2           2.2160434585       -9.0971192260       -2.7162978146  CLST         197          1.0000000000
       590       197  TIP3  H1            1.7763376283       -8.2013274368       -2.4991603929  CLST         197          1.0000000000
       591       197  TIP3  H2            3.0680350109       -8.7979502095       -2.3849552460  CLST         197          1.0000000000
       592       198  TIP3  OH2          10.9351397381        1.9689520286        4.8059164866  CLST         198          1.0000000000
       593       198  TIP3  H1           10.1010810971        1.9172946015        4.2440862611  CLST         198          1.0000000000
       594       198  TIP3  H2           11.1495028791        2.8267183633        4.3612038097  CLST         198          1.0000000000
       595       199  TIP3  OH2          -0.0341109226        8.3920797114       -5.8465909738  CLST         199          1.0000000000
       596       199  TIP3  H1           -0.6014902279        8.8526551580       -5.1609523898  CLST         199          1.0000000000
       597       199  TIP3  H2           -0.3535272358        7.4626642241       -5.8073958617  CLST         199          1.0000000000
       598       200  TIP3  OH2          -7.6321952226       11.9437891312       10.9807384442  CLST         200          1.0000000000
       599       200  TIP3  H1           -7.6450318622       10.9181096453       10.8547035686  CLST         200          1.0000000000
       600       200  TIP3  H2           -7.4519773548       12.1870535419       10.0377757872  CLST         200          1.0000000000
       601       201  TIP3  OH2           4.5610095509        0.9918166400       -0.2108510793  CLST         201          1.0000000000
       602       201  TIP3  H1            4.2779098678        1.7363396115        0.3445803689  CLST         201          1.0000000000
       603       201  TIP3  H2            5.1817324781        0.6136734599        0.4377644335  CLST         201          1.0000000000
       604       202  TIP3  OH2          -2.0027985050       -4.3193126608      -12.4801306178  CLST         202          1.0000000000
       605       202  TIP3  H1           -1.6068665958       -4.9571392016      -11.8931081164  CLST         202          1.0000000000
       606       202  TIP3  H2           -2.4591387823       -3.7554400027      -11.8447941722  CLST         202          1.0000000000
       607       203  TIP3  OH2          -0.6848752085       11.4780367315        7.6376345082  CLST         203          1.0000000000
       608       203  TIP3  H1            0.1229561130       11.0674153211        8.0001441857  CLST         203          1.0000000000
       609       203  TIP3  H2           -1.3854969716       11.0284311337        8.1682944617  CLST         203          1.0000000000
       610       204  TIP3  OH2          -5.3685270770        6.3527880596      -13.1215179413  CLST         204          1.0000000000
       611       204  TIP3  H1           -4.6214984151        6.3646590010      -13.7177055281  CLST         204          1.0000000000
       612       204  TIP3  H2           -5.5426219391        5.3701310037      -13.1364040592  CLST         204          1.0000000000
       613       205  TIP3  OH2          -2.4543863129        7.1553160457       -2.6339421549  CLST         205          1.0000000000
       614       205  TIP3  H1           -2.5132337649        7.8741349920       -3.3531188317  CLST         205          1.0000000000
       615       205  TIP3  H2           -1.4773197452        7.1763213492       -2.5156139182  CLST         205          1.0000000000
       616       206  TIP3  OH2           5.0386099929      -11.0127273745       -9.8813227760  CLST         206          1.0000000000
       617       206  TIP3  H1            5.1304873957      -11.9356468423       -9.5002969681  CLST         206          1.0000000000
       618       206  TIP3  H2            5.5313599144      -10.5690514774       -9.1063777247  CLST         206          1.0000000000
       619       207  TIP3  OH2          12.9197222983       10.1272122497       12.1944396866  CLST         207          1.0000000000
       620       207  TIP3  H1           12.2673377395        9.8193419481       12.8071049047  CLST         207          1.0000000000
       621       207  TIP3  H2           13.6448617001       10.0465012583       12.6057490988  CLST         207          1.0000000000
       622       208  TIP3  OH2         -11.6273396604        2.3043562565        6.8745260259  CLST         208          1.0000000000
       623       208  TIP3  H1          -11.2553202070        2.2148107543        7.7655607872  CLST         208          1.0000000000
       624       208  TIP3  H2          -11.3951985104        3.2306942471        6.5891312495  CLST         208          1.0000000000
       625       209  TIP3  OH2           4.4671570823       -9.4101176631        7.4069533368  CLST         209          1.0000000000
       626       209  TIP3  H1            4.0545875093       -9.7158821355        6.5293247919  CLST         209          1.0000000000
       627       209  TIP3  H2            3.7424919481       -8.7258143711        7.4670333194  CLST         209          1.0000000000
       628       210  TIP3  OH2          12.2964004898      -11.1832348353        5.3503837386  CLST         210          1.0000000000
       629       210  TIP3  H1           12.4822256829      -11.1337416342        4.3307762985  CLST         210          1.0000000000
       630       210  TIP3  H2           12.3888607742      -10.2430697921        5.6253769103  CLST         210          1.0000000000
       631       211  TIP3  OH2          -0.3355185326       -9.1342019129       12.2111776737  CLST         211          1.0000000000
       632       211  TIP3  H1            0.2728228764       -9.5300740754       12.8828270141  CLST         211          1.0000000000
       633       211  TIP3  H2           -1.0141437931       -9.8766653438       12.1765599026  CLST         211          1.0000000000
       634       212  TIP3  OH2         -12.4477422611        3.3461588242       -2.4426876490  CLST         212          1.0000000000
       635       212  TIP3  H1          -11.9460313537        4.0105302680       -2.9738393220  CLST         212          1.0000000000
       636       212  TIP3  H2          -11.7780877221        2.6006149141       -2.4192717153  CLST         212          1.0000000000
       637       213  TIP3  OH2          -9.3806664051      -11.5805531732      -11.4920007838  CLST         213          1.0000000000
       638       213  TIP3  H1           -9.9606356895      -11.7125948453      -12.1464257349  CLST         213          1.0000000000
       639       213  TIP3  H2           -8.3608566540      -11.1481923787      -11.8956719229  CLST         213          1.0000000000
       640       214  TIP3  OH2          -6.6250778899        2.3342455587       -5.3572406806  CLST         214          1.0000000000
       641       214  TIP3  H1           -6.3978216025        1.4412070723       -5.0045376009  CLST         214          1.0000000000
       642       214  TIP3  H2           -7.1869602484        2.8249707793       -4.6953500062  CLST         214          1.0000000000
       643       215  TIP3  OH2         -11.9567289708      -12.6933869697        5.6566481885  CLST         215          1.0000000000
       644       215  TIP3  H1          -11.0011752238      -12.7665812000        5.5655667717  CLST         215          1.0000000000
       645       215  TIP3  H2          -12.0600009356      -12.6041256156        4.6540136853  CLST         215          1.0000000000
       646       216  TIP3  OH2         -11.9575948300       -2.3941181632        7.9736977729  CLST         216          1.0000000000
       647       216  TIP3  H1          -10.9650995210       -2.2362007645        8.0576452513  CLST         216          1.0000000000
       648       216  TIP3  H2          -12.0707492543       -3.1352134278        8.5823644917  CLST         216          1.0000000000
       649       217  TIP3  OH2           7.6752596363       -0.2589615475       -1.5341808778  CLST         217          1.0000000000
       650       217  TIP3  H1            8.0689691264       -1.1634593111       -1.4699476307  CLST         217          1.0000000000
       651       217  TIP3  H2            7.0282151642       -0.3414923099       -0.8117383859  CLST         217          1.0000000000
       652       218  TIP3  OH2          -8.2774833717       -3.9533348298        9.0516878179  CLST         218          1.0000000000
       653       218  TIP3  H1           -8.5405377393       -3.0645561572        8.6625075802  CLST         218          1.0000000000
       654       218  TIP3  H2           -7.6671348053       -4.4227299117        8.4271047609  CLST         218          1.0000000000
       655       219  TIP3  OH2         -12.4906523175       -4.4760822333       -2.7122270818  CLST         219          1.0000000000
       656       219  TIP3  H1          -12.7759141254       -3.6135187754       -2.4453212935  CLST         219          1.0000000000
       657       219  TIP3  H2          -12.7420883711       -4.4201017667       -3.6562660630  CLST         219          1.0000000000
       658       220  TIP3  OH2           6.4054724394        6.6854637195        7.6600489329  CLST         220          1.0000000000
       659       220  TIP3  H1            6.0174767097        6.2378205392        6.8326451578  CLST         220          1.0000000000
       660       220  TIP3  H2            5.5507620169        6.4951069552        8.1454802853  CLST         220          1.0000000000
       661       221  TIP3  OH2         -10.3107178582       -7.0731598796       10.3030838986  CLST         221          1.0000000000
       662       221  TIP3  H1           -9.4964029318       -7.1281908681        9.7999520942  CLST         221          1.0000000000
       663       221  TIP3  H2          -10.6614196326       -7.9773715212       10.0941997839  CLST         221          1.0000000000
       664       222  TIP3  OH2          -6.9358008385       -0.8999385906      -13.6060068487  CLST         222          1.0000000000
       665       222  TIP3  H1           -6.4622344650       -1.7795852611      -13.6196229284  CLST         222          1.0000000000
       666       222  TIP3  H2           -7.6862009825       -1.0730297822      -13.0350567669  CLST         222          1.0000000000
       667       223  TIP3  OH2           2.7070290715      -10.6276250141      -11.5886399462  CLST         223          1.0000000000
       668       223  TIP3  H1            2.2245130997      -11.4747813448      -11.5404392211  CLST         223          1.0000000000
       669       223  TIP3  H2            3.5980660699      -10.8783976685      -11.2463747480  CLST         223          1.0000000000
       670       224  TIP3  OH2           7.5078158279        4.6865845067        0.5546260827  CLST         224          1.0000000000
       671       224  TIP3  H1            8.3987221668        4.9754806709        0.7436667954  CLST         224          1.0000000000
       672       224  TIP3  H2            7.4331177765        4.4874070858       -0.4349032897  CLST         224          1.0000000000
       673       225  TIP3  OH2          -0.1769785889        4.6369897316       -1.3066650570  CLST         225          1.0000000000
       674       225  TIP3  H1           -0.7426518009        4.4637756037       -0.5074255407  CLST         225          1.0000000000
       675       225  TIP3  H2            0.1346442900        3.6940532418       -1.4090586320  CLST         225          1.0000000000
       676       226  TIP3  OH2          -5.6536283258       -4.4361408396        7.5276270286  CLST         226          1.0000000000
       677       226  TIP3  H1           -5.6480615876       -5.4462609808        7.6755073488  CLST         226          1.0000000000
       678       226  TIP3  H2           -5.9725183891       -4.4011444665        6.6125662429  CLST         226          1.0000000000
       679       227  TIP3  OH2          11.6307467088       -4.2038674202      -10.0158740026  CLST         227          1.0000000000
       680       227  TIP3  H1           11.8261990827       -3.9375857692       -9.1100284949  CLST         227          1.0000000000
       681       227  TIP3  H2           11.2288890824       -3.3410282769      -10.3159571092  CLST         227          1.0000000000
       682       228  TIP3  OH2           3.4855557341       12.4051252263        3.2920952314  CLST         228          1.0000000000
       683       228  TIP3  H1            2.7494236915       11.7178291320        3.8373834831  CLST         228          1.0000000000
       684       228  TIP3  H2            2.8508572715       12.6082543857        2.6251822620  CLST         228          1.0000000000
       685       229  TIP3  OH2         -11.6726056027      -13.0422451994        2.8716234316  CLST         229          1.0000000000
       686       229  TIP3  H1          -12.2029237336      -13.6076663003        2.5231918596  CLST         229          1.0000000000
       687       229  TIP3  H2          -11.1392201731      -12.4147861670        2.2692898450  CLST         229          1.0000000000
       688       230  TIP3  OH2          12.2697666676        6.2305495623       -3.4107392596  CLST         230          1.0000000000
       689       230  TIP3  H1           13.2268498751        6.2042739359       -3.1301136974  CLST         230          1.0000000000
       690       230  TIP3  H2           12.2457091413        5.3596145860       -3.8465641789  CLST         230          1.0000000000
       691       231  TIP3  OH2           7.2303458059        3.4963488905        4.7339831586  CLST         231          1.0000000000
       692       231  TIP3  H1            7.3782315440        4.4513699199        4.9024482834  CLST         231          1.0000000000
       693       231  TIP3  H2            6.2849744391        3.4699721002        4.4076945785  CLST         231          1.0000000000
       694       232  TIP3  OH2         -10.3559982309        9.0730422593        7.4714669347  CLST         232          1.0000000000
       695       232  TIP3  H1          -10.7771930043        9.6937361140        8.1505793917  CLST         232          1.0000000000
       696       232  TIP3  H2          -10.3640798010        8.2340838444        7.9936326148  CLST         232          1.0000000000
       697       233  TIP3  OH2           3.5785768558       -5.4157772033        8.0974650827  CLST         233          1.0000000000
       698       233  TIP3  H1            4.3518400962       -5.7085433100        8.7177511051  CLST         233          1.0000000000
       699       233  TIP3  H2            3.2829687564       -4.6050058001        8.6537973820  CLST         233          1.0000000000
       700       234  TIP3  OH2          -3.5596138972        8.5000769177       -0.5854920316  CLST         234          1.0000000000
       701       234  TIP3  H1           -3.3994513577        7.9625978813       -1.4375400861  CLST         234          1.0000000000
       702       234  TIP3  H2           -3.6536636454        9.3321924837       -1.1257271632  CLST         234          1.0000000000
       703       235  TIP3  OH2          -1.8890851305       -3.9924663046       -9.1501257295  CLST         235          1.0000000000
       704       235  TIP3  H1           -1.9118964655       -4.9039760934       -9.4975324784  CLST         235          1.0000000000
       705       235  TIP3  H2           -0.9499970594       -3.7913166592       -9.3167849599  CLST         235          1.0000000000
       706       236  TIP3  OH2          -0.3641197243      -13.7017414382       -3.0036226347  CLST         236          1.0000000000
       707       236  TIP3  H1            0.2625994485      -12.9050636178       -2.8917521072  CLST         236          1.0000000000
       708       236  TIP3  H2           -0.8343569151      -13.4962101660       -2.1425685423  CLST         236          1.0000000000
       709       237  TIP3  OH2          -3.6211430216       -5.1182177679       10.9127645676  CLST         237          1.0000000000
       710       237  TIP3  H1           -4.5950778576       -4.9802390183       10.9636307759  CLST         237          1.0000000000
       711       237  TIP3  H2           -3.5143900168       -5.8962883659       10.3550324160  CLST         237          1.0000000000
       712       238  TIP3  OH2           0.5772877814        4.6796896292        7.1738550432  CLST         238          1.0000000000
       713       238  TIP3  H1           -0.0824445189        5.2493405540        6.6534298376  CLST         238          1.0000000000
       714       238  TIP3  H2            0.4085650265        5.0894668838        8.0512820144  CLST         238          1.0000000000
       715       239  TIP3  OH2         -14.0752392017        5.8172635288        3.6967669588  CLST         239          1.0000000000
       716       239  TIP3  H1          -13.8422426453        6.3574533517        2.9481704435  CLST         239          1.0000000000
       717       239  TIP3  H2          -13.5027964650        5.0567610616        3.5393009748  CLST         239          1.0000000000
       718       240  TIP3  OH2         -14.0604712042        9.0072362507       -0.2120362156  CLST         240          1.0000000000
       719       240  TIP3  H1          -14.9234403010        8.6243689974        0.6271451613  CLST         240          1.0000000000
       720       240  TIP3  H2          -14.1824412806        7.4933855381        0.3481089319  CLST         240          1.0000000000
       721       241  TIP3  OH2          -7.7150827071       -7.7989510267       -8.6008624019  CLST         241          1.0000000000
       722       241  TIP3  H1           -8.1209790719       -8.0783308759       -7.7339818689  CLST         241          1.0000000000
       723       241  TIP3  H2           -7.4250511467       -6.8767301848       -8.3874652563  CLST         241          1.0000000000
       724       242  TIP3  OH2           6.0950591623       -5.7232262387        9.7145008899  CLST         242          1.0000000000
       725       242  TIP3  H1            6.6614628347       -4.9487492904        9.4473931624  CLST         242          1.0000000000
       726       242  TIP3  H2            6.7168332007       -6.4439381179        9.4254452301  CLST         242          1.0000000000
       727       243  TIP3  OH2          -6.5497604430       -7.2313904987       -4.4691857313  CLST         243          1.0000000000
       728       243  TIP3  H1           -6.1185874922       -8.1223252159       -4.7560584468  CLST         243          1.0000000000
       729       243  TIP3  H2           -6.5983612727       -7.5392355444       -3.5198166462  CLST         243          1.0000000000
       730       244  TIP3  OH2           4.8833657986        5.7313071463        5.3592503792  CLST         244          1.0000000000
       731       244  TIP3  H1            5.1300933239        5.2715054263        4.4969203411  CLST         244          1.0000000000
       732       244  TIP3  H2            4.0760970379        5.1589411800        5.5291383245  CLST         244          1.0000000000
       733       245  TIP3  OH2          -7.1076214865        3.5754968271       -7.8053283172  CLST         245          1.0000000000
       734       245  TIP3  H1           -7.1729368168        3.0792833884       -6.8976768229  CLST         245          1.0000000000
       735       245  TIP3  H2           -7.3457807379        4.4208976189       -7.3843953200  CLST         245          1.0000000000
       736       246  TIP3  OH2           1.9677924995       -6.5019010694       -1.9911955831  CLST         246          1.0000000000
       737       246  TIP3  H1            1.9584281416       -5.8221880512       -2.7261494693  CLST         246          1.0000000000
       738       246  TIP3  H2            2.9184871300       -6.4925508628       -1.8099659725  CLST         246          1.0000000000
       739       247  TIP3  OH2           5.9273110219        7.9936297233        0.5559324654  CLST         247          1.0000000000
       740       247  TIP3  H1            6.1664270789        7.6599400441       -0.3510605548  CLST         247          1.0000000000
       741       247  TIP3  H2            5.8234914741        9.0104541651        0.4233634403  CLST         247          1.0000000000
       742       248  TIP3  OH2          -2.6035698660        8.3811874171      -11.8709785876  CLST         248          1.0000000000
       743       248  TIP3  H1           -2.3240714051        8.6548557865      -12.7295994625  CLST         248          1.0000000000
       744       248  TIP3  H2           -2.2811719714        9.1325240005      -11.3055076311  CLST         248          1.0000000000
       745       249  TIP3  OH2           8.9006886288        4.8045397819       -7.8432703406  CLST         249          1.0000000000
       746       249  TIP3  H1            8.4056296437        5.5090512551       -7.3469550176  CLST         249          1.0000000000
       747       249  TIP3  H2            8.5529187357        4.0516251870       -7.3062416882  CLST         249          1.0000000000
       748       250  TIP3  OH2          -7.5156680403        9.7423892265       -5.4248393486  CLST         250          1.0000000000
       749       250  TIP3  H1           -7.9309229726        8.8869402710       -5.6231154678  CLST         250          1.0000000000
       750       250  TIP3  H2           -7.8330177274       10.4204824653       -6.0479603284  CLST         250          1.0000000000
       751       251  TIP3  OH2          -3.5858260991       12.3491269367        3.0666663862  CLST         251          1.0000000000
       752       251  TIP3  H1           -3.2936323090       12.9271901593        2.5252641981  CLST         251          1.0000000000
       753       251  TIP3  H2           -2.9803770080       12.1274056982        3.8037166471  CLST         251          1.0000000000
       754       252  TIP3  OH2           5.9458568904        5.3014443067       14.5617897732  CLST         252          1.0000000000
       755       252  TIP3  H1            5.7320023189        6.2385259027       14.4434592749  CLST         252          1.0000000000
       756       252  TIP3  H2            5.8772966048        5.2554197006       15.4752008554  CLST         252          1.0000000000
       757       253  TIP3  OH2           6.0469441991       13.9458204497        3.2196185024  CLST         253          1.0000000000
       758       253  TIP3  H1            5.1410570741       13.6631691466        3.4025204933  CLST         253          1.0000000000
       759       253  TIP3  H2            5.8880759462       14.0462587019        2.2876615858  CLST         253          1.0000000000
       760       254  TIP3  OH2          -4.2306590989        8.0800643268        2.9517214506  CLST         254          1.0000000000
       761       254  TIP3  H1           -4.5726065857        9.0097861554        2.8108289846  CLST         254          1.0000000000
       762       254  TIP3  H2           -5.0885818596        7.6356153290        3.0590307767  CLST         254          1.0000000000
       763       255  TIP3  OH2          -7.0001474861       10.5945063928        4.1458296277  CLST         255          1.0000000000
       764       255  TIP3  H1           -7.9126428500       10.9636232584        4.2462572885  CLST         255          1.0000000000
       765       255  TIP3  H2           -7.0882608517        9.8595218045        4.7868484937  CLST         255          1.0000000000
       766       256  TIP3  OH2          11.4818031576        3.8830339049       -1.3370693990  CLST         256          1.0000000000
       767       256  TIP3  H1           11.9121615243        3.1232414733       -1.8085699713  CLST         256          1.0000000000
       768       256  TIP3  H2           11.1058759453        3.4030330818       -0.5574330225  CLST         256          1.0000000000
       769       257  TIP3  OH2          -8.4479990198       -1.2317663461       -4.9902381422  CLST         257          1.0000000000
       770       257  TIP3  H1           -7.5695279707       -0.9987410570       -4.6480720479  CLST         257          1.0000000000
       771       257  TIP3  H2           -8.2673945044       -1.1143524294       -5.9206344511  CLST         257          1.0000000000
       772       258  TIP3  OH2          -5.3097022546       10.3183757673        7.8428813394  CLST         258          1.0000000000
       773       258  TIP3  H1           -5.3150925961       11.0352727514        7.1343609429  CLST         258          1.0000000000
       774       258  TIP3  H2           -5.9224019072       10.8486386299        8.4141861616  CLST         258          1.0000000000
       775       259  TIP3  OH2          10.0962031675        6.0630824763        0.8622331828  CLST         259          1.0000000000
       776       259  TIP3  H1           10.9350920406        6.6151462334        0.9824571608  CLST         259          1.0000000000
       777       259  TIP3  H2            9.9826639826        5.8384165348        1.8093372945  CLST         259          1.0000000000
       778       260  TIP3  OH2          -4.9765305646        7.7565379228        8.7621633799  CLST         260          1.0000000000
       779       260  TIP3  H1           -5.2827757410        8.6038331736        8.3276206262  CLST         260          1.0000000000
       780       260  TIP3  H2           -5.8266908872        7.3692155983        9.0326641546  CLST         260          1.0000000000
       781       261  TIP3  OH2           0.8301477426       -4.4579630085       12.3916197985  CLST         261          1.0000000000
       782       261  TIP3  H1            0.3143397892       -5.3306616516       12.3442160517  CLST         261          1.0000000000
       783       261  TIP3  H2            1.5423955339       -4.7064620310       12.9838738878  CLST         261          1.0000000000
       784       262  TIP3  OH2         -11.0736649664        4.7888703306        5.9337674307  CLST         262          1.0000000000
       785       262  TIP3  H1          -10.3520634185        4.6196850741        5.2869133252  CLST         262          1.0000000000
       786       262  TIP3  H2          -11.7869786460        5.1653625076        5.3876003161  CLST         262          1.0000000000
       787       263  TIP3  OH2           1.8064048105        0.8300809411        6.5810357126  CLST         263          1.0000000000
       788       263  TIP3  H1            2.2657181403        1.6428590595        6.2912428208  CLST         263          1.0000000000
       789       263  TIP3  H2            2.5586466205        0.3835097987        7.1231330486  CLST         263          1.0000000000
       790       264  TIP3  OH2           5.2097824964       -4.2527596486       -9.7273420466  CLST         264          1.0000000000
       791       264  TIP3  H1            4.8704527941       -5.1557539991       -9.8426662384  CLST         264          1.0000000000
       792       264  TIP3  H2            4.5427324347       -3.7361577659      -10.2523952127  CLST         264          1.0000000000
       793       265  TIP3  OH2           7.7276541438        4.9529820473      -10.3083294465  CLST         265          1.0000000000
       794       265  TIP3  H1            8.0468076399        5.9088681093      -10.5182660144  CLST         265          1.0000000000
       795       265  TIP3  H2            8.0641201906        4.9985871289       -9.3435330504  CLST         265          1.0000000000
       796       266  TIP3  OH2          -7.8587014296       -8.8470754753        0.1613630109  CLST         266          1.0000000000
       797       266  TIP3  H1           -7.8894174944       -9.2910287145        1.0387762754  CLST         266          1.0000000000
       798       266  TIP3  H2           -8.1460750965       -7.9546802197        0.3186387173  CLST         266          1.0000000000
       799       267  TIP3  OH2           1.2867836097        2.6414868269       -5.2040725233  CLST         267          1.0000000000
       800       267  TIP3  H1            1.6352881013        3.4318806951       -4.6624018139  CLST         267          1.0000000000
       801       267  TIP3  H2            1.9735450131        1.9914799775       -4.9640940707  CLST         267          1.0000000000
       802       268  TIP3  OH2           5.2328203239       -4.5650688550       -6.9652802156  CLST         268          1.0000000000
       803       268  TIP3  H1            5.1866183248       -4.3391970777       -7.9640409082  CLST         268          1.0000000000
       804       268  TIP3  H2            4.9717076967       -5.4779436203       -6.9168189032  CLST         268          1.0000000000
       805       269  TIP3  OH2           5.4562808513       10.9081966399       -0.1798433741  CLST         269          1.0000000000
       806       269  TIP3  H1            6.3783581398       10.6607321499       -0.4681628782  CLST         269          1.0000000000
       807       269  TIP3  H2            5.6592786078       11.8503076675        0.0171938248  CLST         269          1.0000000000
       808       270  TIP3  OH2           1.3092399901        9.2403576599       -8.0470754611  CLST         270          1.0000000000
       809       270  TIP3  H1            1.4150510690        8.4297244314       -8.5651032994  CLST         270          1.0000000000
       810       270  TIP3  H2            0.8270507252        8.8231788221       -7.2526797447  CLST         270          1.0000000000
       811       271  TIP3  OH2          -6.4195662282       -9.1434551554       -2.1413958243  CLST         271          1.0000000000
       812       271  TIP3  H1           -5.6242571268       -9.0521452934       -1.5900096082  CLST         271          1.0000000000
       813       271  TIP3  H2           -7.0511181928       -9.1946193382       -1.3336512168  CLST         271          1.0000000000
       814       272  TIP3  OH2           9.5209636321       -8.1406118196        5.7886119343  CLST         272          1.0000000000
       815       272  TIP3  H1            8.5542026952       -8.2023026912        5.8457917018  CLST         272          1.0000000000
       816       272  TIP3  H2            9.6680762317       -7.6072014138        4.9631762697  CLST         272          1.0000000000
       817       273  TIP3  OH2         -13.8787034272        9.4717034813        3.2135606626  CLST         273          1.0000000000
       818       273  TIP3  H1          -14.4190909283        9.8392310652        3.9663224709  CLST         273          1.0000000000
       819       273  TIP3  H2          -13.3757994632        8.8926773235        3.7900799105  CLST         273          1.0000000000
       820       274  TIP3  OH2           4.2211725706       12.9247176646       -4.0810852124  CLST         274          1.0000000000
       821       274  TIP3  H1            3.8709216806       12.3053585297       -3.3709965847  CLST         274          1.0000000000
       822       274  TIP3  H2            4.0726666340       13.7825810537       -3.8013973758  CLST         274          1.0000000000
       823       275  TIP3  OH2           8.7575967779      -11.0830784529        5.9326480056  CLST         275          1.0000000000
       824       275  TIP3  H1            9.3716331810      -10.3377478428        6.1862797761  CLST         275          1.0000000000
       825       275  TIP3  H2            9.2937109622      -11.8377813332        5.5665891141  CLST         275          1.0000000000
       826       276  TIP3  OH2          -0.2872435713       -5.8868023832        1.4742801693  CLST         276          1.0000000000
       827       276  TIP3  H1           -0.8969428771       -6.3083519128        0.8601128678  CLST         276          1.0000000000
       828       276  TIP3  H2           -0.8233207693       -5.1664246179        1.9011796237  CLST         276          1.0000000000
       829       277  TIP3  OH2           6.4905041960        6.3561905117       -6.9217631073  CLST         277          1.0000000000
       830       277  TIP3  H1            5.8664085971        5.7625024075       -7.3723979132  CLST         277          1.0000000000
       831       277  TIP3  H2            6.4237102995        7.0931923370       -7.5572175079  CLST         277          1.0000000000
       832       278  TIP3  OH2          -0.7891204402       -7.6029926151        3.4762812580  CLST         278          1.0000000000
       833       278  TIP3  H1           -0.5642698610       -6.9237965323        2.7304206131  CLST         278          1.0000000000
       834       278  TIP3  H2           -0.9023478517       -6.8738158553        4.1705812284  CLST         278          1.0000000000
       835       279  TIP3  OH2         -13.5537733305        6.4493255085        0.4865752871  CLST         279          1.0000000000
       836       279  TIP3  H1          -13.9232515438        5.5186987521        0.2988309655  CLST         279          1.0000000000
       837       279  TIP3  H2          -12.6097211383        6.2920083335        0.7410751813  CLST         279          1.0000000000
       838       280  TIP3  OH2          -3.3810911284      -10.1178985234        5.5399619509  CLST         280          1.0000000000
       839       280  TIP3  H1           -3.3903303550       -9.3748216233        6.1593477026  CLST         280          1.0000000000
       840       280  TIP3  H2           -3.6499750290       -9.5930475579        4.7497058193  CLST         280          1.0000000000
       841       281  TIP3  OH2           8.2132665619        7.6822582344      -10.7388305362  CLST         281          1.0000000000
       842       281  TIP3  H1            8.5946152709        8.5852533487      -10.5288615339  CLST         281          1.0000000000
       843       281  TIP3  H2            7.2269246834        7.9761269964      -10.6899205390  CLST         281          1.0000000000
       844       282  TIP3  OH2          -7.7069650847      -11.8263991566        9.9461688864  CLST         282          1.0000000000
       845       282  TIP3  H1           -8.6136314911      -11.5376987909        9.6474221502  CLST         282          1.0000000000
       846       282  TIP3  H2           -7.3245875183      -12.3303776717        9.1481255034  CLST         282          1.0000000000
       847       283  TIP3  OH2           4.5442499729        8.6045689204       -4.7254046266  CLST         283          1.0000000000
       848       283  TIP3  H1            4.7726436575        9.5526963114       -4.7497462973  CLST         283          1.0000000000
       849       283  TIP3  H2            3.8974529625        8.5731029821       -3.9277112422  CLST         283          1.0000000000
       850       284  TIP3  OH2          11.7528948699        8.4517727331       -1.3137953283  CLST         284          1.0000000000
       851       284  TIP3  H1           11.7431324606        7.8979966401       -2.1292691146  CLST         284          1.0000000000
       852       284  TIP3  H2           10.8553673037        8.7886683889       -1.2836318443  CLST         284          1.0000000000
       853       285  TIP3  OH2          -5.3361914534        2.0392369597        8.8641584078  CLST         285          1.0000000000
       854       285  TIP3  H1           -4.5029395532        1.7392811948        8.3563738429  CLST         285          1.0000000000
       855       285  TIP3  H2           -4.8967568706        2.8568952902        9.2264009350  CLST         285          1.0000000000
       856       286  TIP3  OH2           2.8226402398        5.8200382688       -0.5808249709  CLST         286          1.0000000000
       857       286  TIP3  H1            2.0635248209        5.7936888132        0.0347707464  CLST         286          1.0000000000
       858       286  TIP3  H2            3.5386612658        5.9628652105        0.0932727922  CLST         286          1.0000000000
       859       287  TIP3  OH2          -4.2990135580        9.2632051866       11.0690326256  CLST         287          1.0000000000
       860       287  TIP3  H1           -4.7671378364        9.9243690887       11.6352383048  CLST         287          1.0000000000
       861       287  TIP3  H2           -5.0029340658        8.9471833816       10.4680853646  CLST         287          1.0000000000
       862       288  TIP3  OH2           5.9072781767        3.7856757099       -9.8540883155  CLST         288          1.0000000000
       863       288  TIP3  H1            5.8592925497        3.1391731567      -10.5246704485  CLST         288          1.0000000000
       864       288  TIP3  H2            6.6115484660        4.3910075364      -10.2419705325  CLST         288          1.0000000000
       865       289  TIP3  OH2          -7.0658636334       -5.1088716371       -8.4480871908  CLST         289          1.0000000000
       866       289  TIP3  H1           -7.8221484105       -4.5650660587       -8.2286714859  CLST         289          1.0000000000
       867       289  TIP3  H2           -6.3348945921       -4.9514292131       -7.8656393267  CLST         289          1.0000000000
       868       290  TIP3  OH2           2.2133482437      -12.0560755276       11.3860695393  CLST         290          1.0000000000
       869       290  TIP3  H1            2.7549023248      -12.7964124393       11.2021845645  CLST         290          1.0000000000
       870       290  TIP3  H2            2.7371873857      -11.5037281467       11.9736801097  CLST         290          1.0000000000
       871       291  TIP3  OH2         -10.2677588227       -3.4969649472        2.9039261407  CLST         291          1.0000000000
       872       291  TIP3  H1          -11.0160352756       -4.1094370329        3.1873561573  CLST         291          1.0000000000
       873       291  TIP3  H2          -10.1152216885       -3.8727596798        2.0259627339  CLST         291          1.0000000000
       874       292  TIP3  OH2          12.0284576824        3.5614014209       -4.6463462208  CLST         292          1.0000000000
       875       292  TIP3  H1           11.0801135696        3.3476281446       -4.4575196023  CLST         292          1.0000000000
       876       292  TIP3  H2           11.8181274927        3.9269505470       -5.5410055028  CLST         292          1.0000000000
       877       293  TIP3  OH2           9.0321428697       10.6601624331       11.1037434113  CLST         293          1.0000000000
       878       293  TIP3  H1            8.9305540855       11.3324914844       11.6283032856  CLST         293          1.0000000000
       879       293  TIP3  H2            8.9117320066       11.1313709602       10.2081534976  CLST         293          1.0000000000
       880       294  TIP3  OH2           4.0396496454        4.4744956009       -2.4103181807  CLST         294          1.0000000000
       881       294  TIP3  H1            3.5718315861        5.0451049467       -1.7657268333  CLST         294          1.0000000000
       882       294  TIP3  H2            4.2019094296        5.0169848186       -3.1694257402  CLST         294          1.0000000000
       883       295  TIP3  OH2          -2.3171120833      -13.4067054916       -8.6797716395  CLST         295          1.0000000000
       884       295  TIP3  H1           -2.9549008995      -13.1262476666       -7.9850308874  CLST         295          1.0000000000
       885       295  TIP3  H2           -1.4503241452      -13.4893228824       -8.2813382560  CLST         295          1.0000000000
       886       296  TIP3  OH2          -1.5437407831       11.3859669597      -12.8580439441  CLST         296          1.0000000000
       887       296  TIP3  H1           -0.6644099654       11.0046446269      -13.0293642610  CLST         296          1.0000000000
       888       296  TIP3  H2           -1.5872342833       11.3062992798      -11.8874417438  CLST         296          1.0000000000
       889       297  TIP3  OH2           8.0719736672       -0.4936329458       11.4222062320  CLST         297          1.0000000000
       890       297  TIP3  H1            8.5829197876       -1.2550298628       11.0973523288  CLST         297          1.0000000000
       891       297  TIP3  H2            7.1858766335       -0.9040193201       11.5876966507  CLST         297          1.0000000000
       892       298  TIP3  OH2           0.9349672862       -1.3398360334       -7.3526284952  CLST         298          1.0000000000
       893       298  TIP3  H1            1.2739246706       -0.7436491410       -8.0800342777  CLST         298          1.0000000000
       894       298  TIP3  H2            0.7469055580       -2.0905874850       -8.0354234729  CLST         298          1.0000000000
       895       299  TIP3  OH2           3.0687618705       10.2885819495       12.7358564745  CLST         299          1.0000000000
       896       299  TIP3  H1            2.2730082795       10.8005500659       12.4081043328  CLST         299          1.0000000000
       897       299  TIP3  H2            2.5793054695        9.4618605290       12.6773356592  CLST         299          1.0000000000
       898       300  TIP3  OH2         -10.8703338473        5.1844203501       -3.5840989094  CLST         300          1.0000000000
       899       300  TIP3  H1          -10.8260785127        5.6276948214       -4.4876476863  CLST         300          1.0000000000
       900       300  TIP3  H2          -10.8810255802        6.0548001761       -3.1155773796  CLST         300          1.0000000000
       901       301  TIP3  OH2           9.5394446183       -8.3580760286       11.4781796391  CLST         301          1.0000000000
       902       301  TIP3  H1            9.3121152816       -7.9834560734       12.3566820174  CLST         301          1.0000000000
       903       301  TIP3  H2            9.4357968664       -9.3703359224       11.5027177178  CLST         301          1.0000000000
       904       302  TIP3  OH2           7.9840097258       12.9414060534        5.5097862680  CLST         302          1.0000000000
       905       302  TIP3  H1            7.4934475496       13.2065218040        4.6667647508  CLST         302          1.0000000000
       906       302  TIP3  H2            7.1902408306       12.4231901286        5.8484366006  CLST         302          1.0000000000
       907       303  TIP3  OH2         -10.8759045164        1.3036074404       -1.9454426106  CLST         303          1.0000000000
       908       303  TIP3  H1           -9.9323551328        1.1975199070       -1.6463458833  CLST         303          1.0000000000
       909       303  TIP3  H2          -10.8571539015        0.5724279503       -2.6887683061  CLST         303          1.0000000000
       910       304  TIP3  OH2          -8.0016196465        1.0912262587      -14.9549696067  CLST         304          1.0000000000
       911       304  TIP3  H1           -7.5152156890        0.1633624830      -14.6772390952  CLST         304          1.0000000000
       912       304  TIP3  H2           -7.3845500049        1.6650489757      -15.4545339935  CLST         304          1.0000000000
       913       305  TIP3  OH2           3.4384456742       -3.9115442455       13.9478986267  CLST         305          1.0000000000
       914       305  TIP3  H1            4.2266800987       -4.3161520665       13.5964560562  CLST         305          1.0000000000
       915       305  TIP3  H2            3.3870821756       -2.9475324122       13.6950301554  CLST         305          1.0000000000
       916       306  TIP3  OH2           8.7873064320      -12.0757342280      -11.2041448638  CLST         306          1.0000000000
       917       306  TIP3  H1            9.5409049507      -11.8623351927      -11.8327866311  CLST         306          1.0000000000
       918       306  TIP3  H2            9.0905640485      -12.7701880395      -10.7114305576  CLST         306          1.0000000000
       919       307  TIP3  OH2           9.2939964303        7.8968497853       -7.6260580937  CLST         307          1.0000000000
       920       307  TIP3  H1            8.6045597513        8.5696075192       -7.7648585257  CLST         307          1.0000000000
       921       307  TIP3  H2            9.4450034149        7.9444825947       -6.6579273874  CLST         307          1.0000000000
       922       308  TIP3  OH2         -10.8874201271       -4.8837479131        8.8969561444  CLST         308          1.0000000000
       923       308  TIP3  H1          -10.8819996018       -5.6702029539        9.5260769054  CLST         308          1.0000000000
       924       308  TIP3  H2           -9.9263077184       -4.6425989448        8.9412280591  CLST         308          1.0000000000
       925       309  TIP3  OH2          -2.0768675754       -0.5420192435        5.6433743327  CLST         309          1.0000000000
       926       309  TIP3  H1           -2.8168767209       -0.8101014308        5.0589819242  CLST         309          1.0000000000
       927       309  TIP3  H2           -2.0400899913       -1.3931683132        6.1359496630  CLST         309          1.0000000000
       928       310  TIP3  OH2          -5.1052995611       -0.5687227218        7.1529610319  CLST         310          1.0000000000
       929       310  TIP3  H1           -4.4693105435        0.1741249114        7.3303697692  CLST         310          1.0000000000
       930       310  TIP3  H2           -5.0710020641       -0.9829335159        8.0324691397  CLST         310          1.0000000000
       931       311  TIP3  OH2          -7.3934474588        8.4621738085      -12.3254619024  CLST         311          1.0000000000
       932       311  TIP3  H1           -6.7802449460        7.7937405356      -12.7654326379  CLST         311          1.0000000000
       933       311  TIP3  H2           -7.2575133766        8.1935358103      -11.4235096529  CLST         311          1.0000000000
       934       312  TIP3  OH2           6.4107208102       -0.9249943804       -6.1834068424  CLST         312          1.0000000000
       935       312  TIP3  H1            6.0753438579       -0.3421635365       -5.4484338184  CLST         312          1.0000000000
       936       312  TIP3  H2            6.5543366027       -1.6865862406       -5.5816645961  CLST         312          1.0000000000
       937       313  TIP3  OH2          -9.0657537908      -10.5164067727        7.0157833873  CLST         313          1.0000000000
       938       313  TIP3  H1           -8.3104222439       -9.8439347300        6.8175988776  CLST         313          1.0000000000
       939       313  TIP3  H2           -9.3658676259      -10.5755250204        6.0689315722  CLST         313          1.0000000000
       940       314  TIP3  OH2          -1.4172451756      -12.1256335663      -10.9179884844  CLST         314          1.0000000000
       941       314  TIP3  H1           -1.4450066539      -11.3369664100      -10.3189264038  CLST         314          1.0000000000
       942       314  TIP3  H2           -1.9254755392      -12.7650216769      -10.3140495230  CLST         314          1.0000000000
       943       315  TIP3  OH2          -1.3622958259       -0.7481641073       -6.3785001650  CLST         315          1.0000000000
       944       315  TIP3  H1           -0.4547100980       -0.9346127956       -6.7337839816  CLST         315          1.0000000000
       945       315  TIP3  H2           -1.0849508764       -0.2644515146       -5.5617588989  CLST         315          1.0000000000
       946       316  TIP3  OH2         -13.2028234707       -3.8683807795       -5.5089862866  CLST         316          1.0000000000
       947       316  TIP3  H1          -12.4866362540       -4.2021159750       -6.1029720041  CLST         316          1.0000000000
       948       316  TIP3  H2          -12.8307269446       -2.9365043371       -5.4821187886  CLST         316          1.0000000000
       949       317  TIP3  OH2          -6.1781742728        0.0172415556       -3.7819089389  CLST         317          1.0000000000
       950       317  TIP3  H1           -5.3525227947        0.0507555031       -3.1759737708  CLST         317          1.0000000000
       951       317  TIP3  H2           -6.7745956282        0.1078234528       -2.9835546269  CLST         317          1.0000000000
       952       318  TIP3  OH2          -3.9286748593       -9.4628933823       -9.3010213175  CLST         318          1.0000000000
       953       318  TIP3  H1           -3.9985155517       -9.8597838497       -8.2925117588  CLST         318          1.0000000000
       954       318  TIP3  H2           -2.9406512962       -9.4387414225       -9.2952603817  CLST         318          1.0000000000
       955       319  TIP3  OH2           5.6507711518       10.8105467194        8.5770515787  CLST         319          1.0000000000
       956       319  TIP3  H1            6.2929996153       10.3114116239        8.0510601890  CLST         319          1.0000000000
       957       319  TIP3  H2            6.1465195244       11.5579752832        8.8997530151  CLST         319          1.0000000000
       958       320  TIP3  OH2         -10.6449253008        1.0017362630      -14.5668103326  CLST         320          1.0000000000
       959       320  TIP3  H1           -9.6423049565        0.9438349069      -14.7863430107  CLST         320          1.0000000000
       960       320  TIP3  H2          -10.5632902815        0.1019012715      -14.1248729568  CLST         320          1.0000000000
       961       321  TIP3  OH2          -9.8354588365       10.1861788692       -9.7952822232  CLST         321          1.0000000000
       962       321  TIP3  H1          -10.7141553703       10.2256579456       -9.7122730020  CLST         321          1.0000000000
       963       321  TIP3  H2           -9.7636693112       10.2308885776      -11.1670004609  CLST         321          1.0000000000
       964       322  TIP3  OH2         -12.6650850876       -1.7265186564       -2.4543208723  CLST         322          1.0000000000
       965       322  TIP3  H1          -12.3780012565       -1.3344296533       -3.3117834156  CLST         322          1.0000000000
       966       322  TIP3  H2          -11.7189279860       -1.7283470739       -2.0817614747  CLST         322          1.0000000000
       967       323  TIP3  OH2          -1.0017187883        3.9864637284        4.2450181876  CLST         323          1.0000000000
       968       323  TIP3  H1           -0.4852092487        3.2070158245        4.3032560498  CLST         323          1.0000000000
       969       323  TIP3  H2           -1.0236246303        4.0520653227        3.2489818378  CLST         323          1.0000000000
       970       324  TIP3  OH2         -10.9238701728        6.2107238489        1.4000252679  CLST         324          1.0000000000
       971       324  TIP3  H1          -11.1585420683        5.7440715404        2.2354232293  CLST         324          1.0000000000
       972       324  TIP3  H2          -10.0558947342        6.6593861422        1.7266963606  CLST         324          1.0000000000
       973       325  TIP3  OH2          -4.5695808557        0.8750280458        3.5454731394  CLST         325          1.0000000000
       974       325  TIP3  H1           -5.6073473927        0.8456557145        3.6288109707  CLST         325          1.0000000000
       975       325  TIP3  H2           -4.5997638515        1.7378686196        3.1188692023  CLST         325          1.0000000000
       976       326  TIP3  OH2           9.1303946432        8.7604894380       -2.6590446297  CLST         326          1.0000000000
       977       326  TIP3  H1            8.9936899484        8.0765209324       -1.9634272788  CLST         326          1.0000000000
       978       326  TIP3  H2            8.2439939133        8.6457787270       -3.1289275208  CLST         326          1.0000000000
       979       327  TIP3  OH2          10.4712824715       -3.6911266557      -13.0219856458  CLST         327          1.0000000000
       980       327  TIP3  H1           10.4683594325       -3.4818086913      -13.8779846530  CLST         327          1.0000000000
       981       327  TIP3  H2           10.2903072966       -2.9277405592      -12.4197225112  CLST         327          1.0000000000
       982       328  TIP3  OH2           2.0781614329        6.9333166311       -9.8120200008  CLST         328          1.0000000000
       983       328  TIP3  H1            2.2875603989        6.1594061493       -9.1590514574  CLST         328          1.0000000000
       984       328  TIP3  H2            3.0442737755        7.1259879050       -9.6940803829  CLST         328          1.0000000000
       985       329  TIP3  OH2           1.5368663062      -11.6770492220       -2.2730829925  CLST         329          1.0000000000
       986       329  TIP3  H1            1.5463275126      -10.7272144437       -2.5595327630  CLST         329          1.0000000000
       987       329  TIP3  H2            2.3852270246      -11.7123361227       -1.7519215740  CLST         329          1.0000000000
       988       330  TIP3  OH2          -9.2666280182       -1.0165349102        3.3586865163  CLST         330          1.0000000000
       989       330  TIP3  H1           -9.5293626869       -1.9632604820        3.1471601666  CLST         330          1.0000000000
       990       330  TIP3  H2          -10.0933372996       -0.7474518290        3.7392085570  CLST         330          1.0000000000
       991       331  TIP3  OH2          12.3877606221        9.7634897310       -9.0055646703  CLST         331          1.0000000000
       992       331  TIP3  H1           13.2674938726        9.6042048686       -9.1855044681  CLST         331          1.0000000000
       993       331  TIP3  H2           12.0863852108        8.8001627047       -8.9428100947  CLST         331          1.0000000000
       994       332  TIP3  OH2          11.4101891668       -1.1503044170       -4.4579534042  CLST         332          1.0000000000
       995       332  TIP3  H1           12.3454990844       -1.3537160757       -4.8298075486  CLST         332          1.0000000000
       996       332  TIP3  H2           11.6536091035       -0.3535459595       -3.9450776147  CLST         332          1.0000000000
       997       333  TIP3  OH2          10.5237269497      -14.3216354497        7.8780167869  CLST         333          1.0000000000
       998       333  TIP3  H1            9.6874112406      -13.7957918412        8.1085364415  CLST         333          1.0000000000
       999       333  TIP3  H2           10.5459685361      -14.0576759372        6.9451119715  CLST         333          1.0000000000
      1000       334  TIP3  OH2         -10.7274615985       -9.6540327297        9.0616541362  CLST         334          1.0000000000
      1001       334  TIP3  H1          -11.4689565389      -10.0863205963        8.6059221146  CLST         334          1.0000000000
      1002       334  TIP3  H2          -10.0733794580       -9.8599390649        8.3242542683  CLST         334          1.0000000000
      1003       335  TIP3  OH2           6.8564931646       -9.9138965143        1.3964091984  CLST         335          1.0000000000
      1004       335  TIP3  H1            6.7657481591       -9.8286012666        2.3844898929  CLST         335          1.0000000000
      1005       335  TIP3  H2            5.9085194135      -10.0163441288        1.2057777763  CLST         335          1.0000000000
      1006       336  TIP3  OH2          -9.3079316930       -3.7156838371       -3.6254286346  CLST         336          1.0000000000
      1007       336  TIP3  H1           -9.5476117321       -4.5857058558       -4.0080635024  CLST         336          1.0000000000
      1008       336  TIP3  H2           -9.1451596982       -3.2797536055       -4.4945494522  CLST         336          1.0000000000
      1009       337  TIP3  OH2          -1.6006836577       -4.9484807614        8.0915642616  CLST         337          1.0000000000
      1010       337  TIP3  H1           -1.2782632075       -4.4703986425        8.9129211089  CLST         337          1.0000000000
      1011       337  TIP3  H2           -2.2571055722       -4.2194074739        7.8808571189  CLST         337          1.0000000000
      1012       338  TIP3  OH2          -0.4087135723        2.6605027453       10.7038623797  CLST         338          1.0000000000
      1013       338  TIP3  H1           -0.4352978791        2.2958641853        9.7900869582  CLST         338          1.0000000000
      1014       338  TIP3  H2            0.3462467085        2.2889870373       11.0945021606  CLST         338          1.0000000000
      1015       339  TIP3  OH2           7.9251196720        8.0268847268        2.8432547661  CLST         339          1.0000000000
      1016       339  TIP3  H1            7.5073928978        8.6877528757        3.4110226185  CLST         339          1.0000000000
      1017       339  TIP3  H2            7.1596042513        7.7841184048        2.2373961998  CLST         339          1.0000000000
      1018       340  TIP3  OH2          -4.6894212374      -11.7565738470      -11.1148303158  CLST         340          1.0000000000
      1019       340  TIP3  H1           -4.2733150279      -11.0891074117      -10.5294714190  CLST         340          1.0000000000
      1020       340  TIP3  H2           -4.7889000752      -12.4888811037      -10.5012094567  CLST         340          1.0000000000
      1021       341  TIP3  OH2          -6.7888982658        4.7096117550        9.4228044811  CLST         341          1.0000000000
      1022       341  TIP3  H1           -5.8617273480        4.5225794114        9.7117133216  CLST         341          1.0000000000
      1023       341  TIP3  H2           -7.0867533113        3.7746154126        9.3566866003  CLST         341          1.0000000000
      1024       342  TIP3  OH2          -4.5094591765      -11.1266722448       14.0269496148  CLST         342          1.0000000000
      1025       342  TIP3  H1           -5.2279832257      -11.0396332810       13.3726921186  CLST         342          1.0000000000
      1026       342  TIP3  H2           -4.7146666012      -10.9928753647       14.8284271674  CLST         342          1.0000000000
      1027       343  TIP3  OH2           1.3231848553       -9.0546592875       -9.7822462849  CLST         343          1.0000000000
      1028       343  TIP3  H1            1.4388300933       -8.2252975689      -10.2506583406  CLST         343          1.0000000000
      1029       343  TIP3  H2            1.6353676386       -9.6158261962      -10.5509929896  CLST         343          1.0000000000
      1030       344  TIP3  OH2           5.3963294503       -3.9888812293        6.2834785528  CLST         344          1.0000000000
      1031       344  TIP3  H1            4.8484930904       -4.5708894408        6.8674078359  CLST         344          1.0000000000
      1032       344  TIP3  H2            6.0477400617       -4.5990300138        5.8224073856  CLST         344          1.0000000000
      1033       345  TIP3  OH2          13.0981891061        7.2674208114        8.8334064104  CLST         345          1.0000000000
      1034       345  TIP3  H1           12.5333440980        6.4768064030        8.7336741353  CLST         345          1.0000000000
      1035       345  TIP3  H2           12.6765114228        7.5310365863        9.6681714642  CLST         345          1.0000000000
      1036       346  TIP3  OH2           9.4866463077        9.3428991870        0.9547291081  CLST         346          1.0000000000
      1037       346  TIP3  H1            9.7328631740       10.1465825664        1.5032170757  CLST         346          1.0000000000
      1038       346  TIP3  H2            9.0079604728        8.8031683966        1.6111652144  CLST         346          1.0000000000
      1039       347  TIP3  OH2          -5.1233243906        2.9619729276       -9.7303446673  CLST         347          1.0000000000
      1040       347  TIP3  H1           -5.8042758158        2.9615899146       -9.0153598490  CLST         347          1.0000000000
      1041       347  TIP3  H2           -4.3458669538        3.1208157075       -9.2205540665  CLST         347          1.0000000000
      1042       348  TIP3  OH2          -1.2140058055        6.0923040074        5.8028399153  CLST         348          1.0000000000
      1043       348  TIP3  H1           -1.3063056692        5.2300477553        5.2299107808  CLST         348          1.0000000000
      1044       348  TIP3  H2           -0.5615766882        6.5614336164        5.2192222835  CLST         348          1.0000000000
      1045       349  TIP3  OH2          -4.2926437558        5.1364401659       -2.5698300600  CLST         349          1.0000000000
      1046       349  TIP3  H1           -3.8894013530        4.5779078207       -3.2931219229  CLST         349          1.0000000000
      1047       349  TIP3  H2           -3.5181091415        5.8149463846       -2.6744433444  CLST         349          1.0000000000
      1048       350  TIP3  OH2          -2.5179592789        9.0021706005        5.2159094980  CLST         350          1.0000000000
      1049       350  TIP3  H1           -2.9350523651        8.6579182382        4.3723882248  CLST         350          1.0000000000
      1050       350  TIP3  H2           -2.9431996114        8.3875929653        5.8134506381  CLST         350          1.0000000000
      1051       351  TIP3  OH2           4.8096622122       -7.6071781436       -7.6473958532  CLST         351          1.0000000000
      1052       351  TIP3  H1            4.1169223579       -8.3049716792       -7.6933220610  CLST         351          1.0000000000
      1053       351  TIP3  H2            4.7488316688       -7.3811393682       -8.6203381935  CLST         351          1.0000000000
      1054       352  TIP3  OH2         -10.3647419852      -11.0571223657        1.7643234455  CLST         352          1.0000000000
      1055       352  TIP3  H1           -9.4305605840      -10.8938509143        1.6011852764  CLST         352          1.0000000000
      1056       352  TIP3  H2          -10.9355328747      -10.4652529466        1.3235948534  CLST         352          1.0000000000
      1057       353  TIP3  OH2          10.8500129233       -8.2431993881       -8.6375784685  CLST         353          1.0000000000
      1058       353  TIP3  H1            9.9518065050       -8.6186342377       -8.7269101319  CLST         353          1.0000000000
      1059       353  TIP3  H2           11.0862654614       -8.2283817328       -7.7263138964  CLST         353          1.0000000000
      1060       354  TIP3  OH2           6.8691531221      -10.5152265059        4.0835151345  CLST         354          1.0000000000
      1061       354  TIP3  H1            7.6612484234      -10.7805605642        4.7246577988  CLST         354          1.0000000000
      1062       354  TIP3  H2            6.5934673732       -9.7626659312        4.6523090479  CLST         354          1.0000000000
      1063       355  TIP3  OH2          -7.1700413773        9.0417622836       -8.8378437308  CLST         355          1.0000000000
      1064       355  TIP3  H1           -6.8746924731        9.9695264429       -8.6365131616  CLST         355          1.0000000000
      1065       355  TIP3  H2           -8.1024271529        9.2784671078       -9.0343198309  CLST         355          1.0000000000
      1066       356  TIP3  OH2          12.5271566809        1.0112058419       -2.0379560662  CLST         356          1.0000000000
      1067       356  TIP3  H1           11.5561190689        0.8557405718       -2.0844796269  CLST         356          1.0000000000
      1068       356  TIP3  H2           12.8035891742        0.7709125373       -1.1416640560  CLST         356          1.0000000000
      1069       357  TIP3  OH2          -0.5738915560       -0.4008107238       -1.9245869610  CLST         357          1.0000000000
      1070       357  TIP3  H1            0.2841130898       -0.9353493182       -2.0114121499  CLST         357          1.0000000000
      1071       357  TIP3  H2           -0.6670975306       -0.3238118858       -2.9091012150  CLST         357          1.0000000000
      1072       358  TIP3  OH2          -5.6389128120        7.0463854437       -7.5309491678  CLST         358          1.0000000000
      1073       358  TIP3  H1           -6.0659751595        7.7854477686       -8.0716949996  CLST         358          1.0000000000
      1074       358  TIP3  H2           -6.4505958253        6.6559278493       -7.1181084605  CLST         358          1.0000000000
      1075       359  TIP3  OH2          -5.2165707172       12.1727641639        6.0328326068  CLST         359          1.0000000000
      1076       359  TIP3  H1           -5.6664845342       11.9629319608        5.2037072423  CLST         359          1.0000000000
      1077       359  TIP3  H2           -4.2615894425       12.2102317531        5.7905207783  CLST         359          1.0000000000
      1078       360  TIP3  OH2          -6.8805145151        5.9284363742       -3.2852512804  CLST         360          1.0000000000
      1079       360  TIP3  H1           -6.9610450729        6.5443841893       -2.5342172273  CLST         360          1.0000000000
      1080       360  TIP3  H2           -5.9606501349        5.5809955785       -3.0506034626  CLST         360          1.0000000000
      1081       361  TIP3  OH2          -1.4874460489       -0.9297645408       10.1199361552  CLST         361          1.0000000000
      1082       361  TIP3  H1           -1.2773489475       -0.3913963105       10.9600876917  CLST         361          1.0000000000
      1083       361  TIP3  H2           -1.7257871471       -1.7646245468       10.6004321134  CLST         361          1.0000000000
      1084       362  TIP3  OH2         -10.5161026271        2.8045426841        0.6163941789  CLST         362          1.0000000000
      1085       362  TIP3  H1          -10.3893053780        3.3719660546       -0.1699344429  CLST         362          1.0000000000
      1086       362  TIP3  H2          -11.0764216443        2.1012248375        0.2135809368  CLST         362          1.0000000000
      1087       363  TIP3  OH2          10.4499531312        2.4048994134       10.3138321567  CLST         363          1.0000000000
      1088       363  TIP3  H1           10.8311219077        1.4465736009       10.1981251071  CLST         363          1.0000000000
      1089       363  TIP3  H2           10.9911024375        3.0918348371       10.4571445922  CLST         363          1.0000000000
      1090       364  TIP3  OH2           7.7353870273       -5.6782799860       -6.2236701148  CLST         364          1.0000000000
      1091       364  TIP3  H1            6.9191417627       -5.1983545376       -6.4961141100  CLST         364          1.0000000000
      1092       364  TIP3  H2            8.1846102111       -5.7463105293       -7.1547685680  CLST         364          1.0000000000
      1093       365  TIP3  OH2          -6.0446351025       -6.8774171253        2.6188484731  CLST         365          1.0000000000
      1094       365  TIP3  H1           -6.4456729986       -6.0136682215        2.6435967870  CLST         365          1.0000000000
      1095       365  TIP3  H2           -6.8729328726       -7.4049397679        2.9461491512  CLST         365          1.0000000000
      1096       366  TIP3  OH2           1.9330253940       -1.5651307980       -2.9697725942  CLST         366          1.0000000000
      1097       366  TIP3  H1            2.9117245609       -1.6750376873       -2.7344172095  CLST         366          1.0000000000
      1098       366  TIP3  H2            2.1145764672       -1.1040885700       -3.8549528433  CLST         366          1.0000000000
      1099       367  TIP3  OH2          -5.1423300207       11.7557470106       12.3316426344  CLST         367          1.0000000000
      1100       367  TIP3  H1           -5.9139860125       12.1729001279       11.7964591934  CLST         367          1.0000000000
      1101       367  TIP3  H2           -5.3242933792       12.1842458608       13.1494607903  CLST         367          1.0000000000
      1102       368  TIP3  OH2          -2.6119374191        6.6198117175        1.1154307566  CLST         368          1.0000000000
      1103       368  TIP3  H1           -2.6374360415        7.3801061260        0.4735150683  CLST         368          1.0000000000
      1104       368  TIP3  H2           -3.1620686120        7.0446041533        1.8112985443  CLST         368          1.0000000000
      1105       369  TIP3  OH2         -11.5744939031       -1.7731664925       -6.4357901328  CLST         369          1.0000000000
      1106       369  TIP3  H1          -10.9296841539       -2.4741355219       -6.2390135599  CLST         369          1.0000000000
      1107       369  TIP3  H2          -11.7056108008       -2.0871319095       -7.3929456458  CLST         369          1.0000000000
      1108       370  TIP3  OH2         -12.1473841588        5.4468263509      -11.7235265478  CLST         370          1.0000000000
      1109       370  TIP3  H1          -13.0798615314        4.5779321067      -12.9800899310  CLST         370          1.0000000000
      1110       370  TIP3  H2          -13.0356667236        5.6083319897      -11.6597774465  CLST         370          1.0000000000
      1111       371  TIP3  OH2           2.1077248409        7.7567287467        5.8097133961  CLST         371          1.0000000000
      1112       371  TIP3  H1            2.1069053978        7.4664015580        6.7321714425  CLST         371          1.0000000000
      1113       371  TIP3  H2            2.9234547241        8.2203293981        5.7968486331  CLST         371          1.0000000000
      1114       372  TIP3  OH2           8.2186512041       -7.5677875120        9.0482557473  CLST         372          1.0000000000
      1115       372  TIP3  H1            9.0264088658       -7.6902040026        8.5214811336  CLST         372          1.0000000000
      1116       372  TIP3  H2            8.6746288036       -7.7049184631        9.9240286098  CLST         372          1.0000000000
      1117       373  TIP3  OH2          11.0984406512       -0.4325470507        6.3995879063  CLST         373          1.0000000000
      1118       373  TIP3  H1           11.4025058309        0.4053063582        6.0010483934  CLST         373          1.0000000000
      1119       373  TIP3  H2           10.2107821218       -0.3333967643        5.9355465816  CLST         373          1.0000000000
      1120       374  TIP3  OH2          -9.4332364482        4.7317136339      -12.1828383870  CLST         374          1.0000000000
      1121       374  TIP3  H1           -9.8886768152        5.4322728273      -12.6882024193  CLST         374          1.0000000000
      1122       374  TIP3  H2          -10.2147070762        4.9172673483      -11.5053400483  CLST         374          1.0000000000
      1123       375  TIP3  OH2           9.8456739089       -5.3574069573       -2.8504260637  CLST         375          1.0000000000
      1124       375  TIP3  H1           10.1518261596       -5.1151956711       -3.7464124392  CLST         375          1.0000000000
      1125       375  TIP3  H2           10.2683556390       -6.2333141743       -2.6874776136  CLST         375          1.0000000000
      1126       376  TIP3  OH2          -2.3093022399      -11.1659469527       12.1573025499  CLST         376          1.0000000000
      1127       376  TIP3  H1           -2.8199603814      -11.1237235305       12.9870797013  CLST         376          1.0000000000
      1128       376  TIP3  H2           -3.0809265069      -11.1371229167       11.5306388784  CLST         376          1.0000000000
      1129       377  TIP3  OH2         -10.0872895985       12.9519785514       10.4121268925  CLST         377          1.0000000000
      1130       377  TIP3  H1           -9.1844504477       12.6829008759       10.7632296445  CLST         377          1.0000000000
      1131       377  TIP3  H2           -9.8118872553       12.9945535309        9.4748076877  CLST         377          1.0000000000
      1132       378  TIP3  OH2           2.0938563983       -8.0409427670        7.2599125962  CLST         378          1.0000000000
      1133       378  TIP3  H1            2.2035058221       -7.0568926508        7.0832849585  CLST         378          1.0000000000
      1134       378  TIP3  H2            1.3928724372       -8.0684325502        7.8866405108  CLST         378          1.0000000000
      1135       379  TIP3  OH2          -9.4483659983        9.2902245132       -1.1448601235  CLST         379          1.0000000000
      1136       379  TIP3  H1           -8.7042658123        9.5612627959       -0.4993069013  CLST         379          1.0000000000
      1137       379  TIP3  H2           -9.6786494372       10.2159892265       -1.4859096482  CLST         379          1.0000000000
      1138       380  TIP3  OH2           2.9596975663       -4.1623097233      -11.2178890796  CLST         380          1.0000000000
      1139       380  TIP3  H1            2.3912517611       -3.5502401565      -11.7688578209  CLST         380          1.0000000000
      1140       380  TIP3  H2            3.3792652843       -4.7576590889      -11.8702835072  CLST         380          1.0000000000
      1141       381  TIP3  OH2          10.2520520484        4.1080981687        3.4625131732  CLST         381          1.0000000000
      1142       381  TIP3  H1            9.4109390409        4.4313342429        3.8474171516  CLST         381          1.0000000000
      1143       381  TIP3  H2           10.8271841654        4.8851978551        3.7487116736  CLST         381          1.0000000000
      1144       382  TIP3  OH2           1.8886549072       -5.3055687661        5.6978164457  CLST         382          1.0000000000
      1145       382  TIP3  H1            2.2118298577       -4.7918116680        6.4546059451  CLST         382          1.0000000000
      1146       382  TIP3  H2            2.7566151547       -5.7352944607        5.5058298306  CLST         382          1.0000000000
      1147       383  TIP3  OH2          10.2833578974        8.9389617509        4.8348101575  CLST         383          1.0000000000
      1148       383  TIP3  H1            9.4630028524        9.0767415817        4.3255076489  CLST         383          1.0000000000
      1149       383  TIP3  H2           10.4778835927        9.8808357639        4.9953862180  CLST         383          1.0000000000
      1150       384  TIP3  OH2          -3.3213453277       -1.8089556637       -8.2997223010  CLST         384          1.0000000000
      1151       384  TIP3  H1           -2.8454018788       -2.7058853607       -8.3936215783  CLST         384          1.0000000000
      1152       384  TIP3  H2           -2.6635831478       -1.4910137332       -7.6082451892  CLST         384          1.0000000000
      1153       385  TIP3  OH2           3.6522295619      -11.6727756830       -0.7868038606  CLST         385          1.0000000000
      1154       385  TIP3  H1            4.5591111448      -12.1272131099       -0.6708075581  CLST         385          1.0000000000
      1155       385  TIP3  H2            3.8159709638      -11.0012532057       -0.0589714011  CLST         385          1.0000000000
      1156       386  TIP3  OH2          -4.3351444785        9.3199174698       -6.2408118344  CLST         386          1.0000000000
      1157       386  TIP3  H1           -4.9177173220        8.5573411638       -6.5453787573  CLST         386          1.0000000000
      1158       386  TIP3  H2           -4.2359558609        9.6565809078       -7.1348387984  CLST         386          1.0000000000
      1159       387  TIP3  OH2          -9.7754749119       10.6313087949        2.6218699658  CLST         387          1.0000000000
      1160       387  TIP3  H1          -10.5648013736       10.3123002241        2.0739787015  CLST         387          1.0000000000
      1161       387  TIP3  H2           -9.0930384640       10.3522385656        1.9721684552  CLST         387          1.0000000000
      1162       388  TIP3  OH2          -1.7613394007      -12.2555627830        5.9616303202  CLST         388          1.0000000000
      1163       388  TIP3  H1           -2.0539101504      -11.4028571889        5.5812169225  CLST         388          1.0000000000
      1164       388  TIP3  H2           -1.7003537814      -12.0954315649        6.9572312773  CLST         388          1.0000000000
      1165       389  TIP3  OH2          -8.2183548194        3.3313335538       -3.5188070173  CLST         389          1.0000000000
      1166       389  TIP3  H1           -7.8500525280        4.2025767962       -3.2133556666  CLST         389          1.0000000000
      1167       389  TIP3  H2           -9.0443460601        3.6944148512       -3.9275917007  CLST         389          1.0000000000
      1168       390  TIP3  OH2          -5.7521929333       -4.0050846468        4.3589515891  CLST         390          1.0000000000
      1169       390  TIP3  H1           -5.2158940534       -3.1545817980        4.5171649259  CLST         390          1.0000000000
      1170       390  TIP3  H2           -5.0792668949       -4.4490414138        3.8357073019  CLST         390          1.0000000000
      1171       391  TIP3  OH2          -8.9573489046       -8.8715407478       -6.2482858689  CLST         391          1.0000000000
      1172       391  TIP3  H1           -9.4879376390       -9.4393015251       -6.7865156701  CLST         391          1.0000000000
      1173       391  TIP3  H2           -8.2268756835       -9.4769111669       -5.9394594108  CLST         391          1.0000000000
      1174       392  TIP3  OH2           0.9554634546       -1.8905234111       10.0184334423  CLST         392          1.0000000000
      1175       392  TIP3  H1            0.3136279106       -2.5635778228       10.3695404493  CLST         392          1.0000000000
      1176       392  TIP3  H2            0.2763419222       -1.1905096617        9.8113186868  CLST         392          1.0000000000
      1177       393  TIP3  OH2          10.9818666463      -12.2226169845       -0.5891087349  CLST         393          1.0000000000
      1178       393  TIP3  H1           11.4332441778      -11.3100850905       -0.7064059229  CLST         393          1.0000000000
      1179       393  TIP3  H2           11.4620111135      -12.7265471048       -1.1970889968  CLST         393          1.0000000000
      1180       394  TIP3  OH2           0.4867887363       11.8151762816       -8.6390531915  CLST         394          1.0000000000
      1181       394  TIP3  H1            1.0743632151       12.3409102507       -8.0743414356  CLST         394          1.0000000000
      1182       394  TIP3  H2            0.7558059448       10.9536463119       -8.2586630887  CLST         394          1.0000000000
      1183       395  TIP3  OH2           6.8735228761        7.6019164242       -4.4879673478  CLST         395          1.0000000000
      1184       395  TIP3  H1            5.9532421642        8.0237307412       -4.5566986109  CLST         395          1.0000000000
      1185       395  TIP3  H2            6.7618560200        7.0905776642       -5.3743724943  CLST         395          1.0000000000
      1186       396  TIP3  OH2          -1.1861481828      -10.0148095125       -8.9964955303  CLST         396          1.0000000000
      1187       396  TIP3  H1           -1.3218879205       -9.9628176377       -7.9466354045  CLST         396          1.0000000000
      1188       396  TIP3  H2           -0.3144412551       -9.5173610941       -9.0687045650  CLST         396          1.0000000000
      1189       397  TIP3  OH2          11.3572189021        7.1436464437       -9.0241587336  CLST         397          1.0000000000
      1190       397  TIP3  H1           11.8488750852        6.5960159329       -8.3961789527  CLST         397          1.0000000000
      1191       397  TIP3  H2           10.4746057067        7.1320031567       -8.5776775172  CLST         397          1.0000000000
      1192       398  TIP3  OH2          10.5454435848        7.8172104315       -4.9603619256  CLST         398          1.0000000000
      1193       398  TIP3  H1           10.1568728768        8.3365806471       -4.1842374503  CLST         398          1.0000000000
      1194       398  TIP3  H2           11.1669171397        7.3327901451       -4.3238323095  CLST         398          1.0000000000
      1195       399  TIP3  OH2           1.8937992516       11.2615009313        4.8165757197  CLST         399          1.0000000000
      1196       399  TIP3  H1            1.2329465631       10.5681715044        5.0302709781  CLST         399          1.0000000000
      1197       399  TIP3  H2            2.3001763039       11.2360062129        5.7679125822  CLST         399          1.0000000000
      1198       400  TIP3  OH2           4.0252131788       -2.9427226239       -5.1632095068  CLST         400          1.0000000000
      1199       400  TIP3  H1            4.7442095670       -2.7079647960       -4.5588827497  CLST         400          1.0000000000
      1200       400  TIP3  H2            4.5591625991       -3.4212703423       -5.8804642933  CLST         400          1.0000000000
      1201       401  TIP3  OH2         -14.7831753484       10.0138632359        5.4630908200  CLST         401          1.0000000000
      1202       401  TIP3  H1          -14.2009529634       10.1180178995        6.3208132191  CLST         401          1.0000000000
      1203       401  TIP3  H2          -15.6553693665        9.9668907862        5.8637882244  CLST         401          1.0000000000
      1204       402  TIP3  OH2           1.8051589597       -1.7495182672       12.8321702883  CLST         402          1.0000000000
      1205       402  TIP3  H1            1.3407751012       -2.5715453404       12.7664973714  CLST         402          1.0000000000
      1206       402  TIP3  H2            1.7856593758       -1.5804562943       11.8506756948  CLST         402          1.0000000000
      1207       403  TIP3  OH2          -2.0491938049       -6.9447691084       -0.7677531647  CLST         403          1.0000000000
      1208       403  TIP3  H1           -1.7635263921       -6.4383914320       -1.5159599949  CLST         403          1.0000000000
      1209       403  TIP3  H2           -1.8948742994       -7.8695830801       -1.2591792191  CLST         403          1.0000000000
      1210       404  TIP3  OH2          -4.7762349621       -2.4472489423        9.2654704669  CLST         404          1.0000000000
      1211       404  TIP3  H1           -5.0451357354       -2.5196425103       10.1979755306  CLST         404          1.0000000000
      1212       404  TIP3  H2           -5.2176461380       -3.1958689282        8.7943040367  CLST         404          1.0000000000
      1213       405  TIP3  OH2         -11.9285624626        7.4395045246       11.2229906973  CLST         405          1.0000000000
      1214       405  TIP3  H1          -11.8914762134        6.5260532211       10.7776089133  CLST         405          1.0000000000
      1215       405  TIP3  H2          -12.6614254561        7.3247407289       11.8608932100  CLST         405          1.0000000000
      1216       406  TIP3  OH2           1.0539923606        7.6863578390      -12.1338493648  CLST         406          1.0000000000
      1217       406  TIP3  H1            1.2400930918        8.6500435180      -12.3388293233  CLST         406          1.0000000000
      1218       406  TIP3  H2            1.3716679669        7.5421650969      -11.2147046353  CLST         406          1.0000000000
      1219       407  TIP3  OH2          10.4568941355      -13.4727397021        5.1392097619  CLST         407          1.0000000000
      1220       407  TIP3  H1           10.5806854122      -13.5465705202        4.1679204965  CLST         407          1.0000000000
      1221       407  TIP3  H2           11.1963856341      -12.7953961801        5.3172027660  CLST         407          1.0000000000
      1222       408  TIP3  OH2          -2.8817570201      -11.6209320439        1.8000321877  CLST         408          1.0000000000
      1223       408  TIP3  H1           -2.1508310099      -10.8964853004        1.8103770031  CLST         408          1.0000000000
      1224       408  TIP3  H2           -2.3099586354      -12.3980043403        2.1165498324  CLST         408          1.0000000000
      1225       409  TIP3  OH2           1.0618312546       -9.5534950976        9.7100951073  CLST         409          1.0000000000
      1226       409  TIP3  H1            0.6074690516       -9.5526447377       10.6086060167  CLST         409          1.0000000000
      1227       409  TIP3  H2            1.5755980596      -10.3629845555        9.7865035116  CLST         409          1.0000000000
      1228       410  TIP3  OH2           9.9529508788       -7.0259777148       -5.1516672230  CLST         410          1.0000000000
      1229       410  TIP3  H1            9.1109259207       -6.7585068414       -5.5499313564  CLST         410          1.0000000000
      1230       410  TIP3  H2           10.4344263249       -6.1992010928       -5.4247070991  CLST         410          1.0000000000
      1231       411  TIP3  OH2          -9.9691056373       -2.1631148178       -1.4020641433  CLST         411          1.0000000000
      1232       411  TIP3  H1           -9.1591342006       -1.9309491306       -0.9148914890  CLST         411          1.0000000000
      1233       411  TIP3  H2           -9.5257033593       -2.6055243991       -2.1702890979  CLST         411          1.0000000000
      1234       412  TIP3  OH2           6.8481029195      -10.6398330596      -11.9841593970  CLST         412          1.0000000000
      1235       412  TIP3  H1            6.3023537609      -10.8410091852      -11.1981099973  CLST         412          1.0000000000
      1236       412  TIP3  H2            7.5956245806      -11.2722715950      -11.7858371161  CLST         412          1.0000000000
      1237       413  TIP3  OH2           7.0320893577       13.0000326145        0.2785584829  CLST         413          1.0000000000
      1238       413  TIP3  H1            7.5752054054       12.3887017992       -0.2288627103  CLST         413          1.0000000000
      1239       413  TIP3  H2            7.7028856306       13.6222306918        0.7017322775  CLST         413          1.0000000000
      1240       414  TIP3  OH2           1.3682265582       -2.4263308020      -12.3583596431  CLST         414          1.0000000000
      1241       414  TIP3  H1            0.5056839493       -2.0167719507      -12.1366156007  CLST         414          1.0000000000
      1242       414  TIP3  H2            1.5133495464       -2.4071788826      -13.3534354792  CLST         414          1.0000000000
      1243       415  TIP3  OH2           4.0732544782        5.3181977271       -8.2298262226  CLST         415          1.0000000000
      1244       415  TIP3  H1            3.4226950816        4.4173709284       -8.1025466265  CLST         415          1.0000000000
      1245       415  TIP3  H2            4.7000662769        4.3951658539       -8.6724369445  CLST         415          1.0000000000
      1246       416  TIP3  OH2           5.6734750408       12.4022508320       -7.7261469911  CLST         416          1.0000000000
      1247       416  TIP3  H1            5.2924048200       13.1825231924       -8.0290425958  CLST         416          1.0000000000
      1248       416  TIP3  H2            6.4510395618       12.2822217744       -8.2833495511  CLST         416          1.0000000000
      1249       417  TIP3  OH2          12.5533133143      -11.2627853370        2.8001584208  CLST         417          1.0000000000
      1250       417  TIP3  H1           11.9747039173      -11.8976868761        2.4227947581  CLST         417          1.0000000000
      1251       417  TIP3  H2           12.3950981806      -10.4836213303        2.2096304024  CLST         417          1.0000000000
      1252       418  TIP3  OH2          -9.2733659841       -1.5897127500        8.2178881438  CLST         418          1.0000000000
      1253       418  TIP3  H1           -8.7092295104       -1.1455513004        7.5267785720  CLST         418          1.0000000000
      1254       418  TIP3  H2           -9.4137596409       -0.8799234946        8.8688361919  CLST         418          1.0000000000
      1255       419  TIP3  OH2          14.4130599608        0.3108681219       -6.3218474470  CLST         419          1.0000000000
      1256       419  TIP3  H1           14.5868555487        1.1878825606       -4.9246295911  CLST         419          1.0000000000
      1257       419  TIP3  H2           15.2329484309        1.0635450184       -5.7904090870  CLST         419          1.0000000000
      1258       420  TIP3  OH2          -8.2019954142       -8.2249214975        3.4368599039  CLST         420          1.0000000000
      1259       420  TIP3  H1           -9.0322684572       -7.9745928831        2.9356879393  CLST         420          1.0000000000
      1260       420  TIP3  H2           -8.4913398154       -9.1128858951        3.7695482274  CLST         420          1.0000000000
      1261       421  TIP3  OH2           3.5560562408       -6.2596915762      -13.1285684893  CLST         421          1.0000000000
      1262       421  TIP3  H1            4.4502757276       -6.7285377041      -13.0404817803  CLST         421          1.0000000000
      1263       421  TIP3  H2            3.1034699989       -7.1492978787      -13.3823855901  CLST         421          1.0000000000
      1264       422  TIP3  OH2          -1.8788246766       -9.3763921554       -1.7052667039  CLST         422          1.0000000000
      1265       422  TIP3  H1           -1.1860727919       -9.9090335581       -2.1113261363  CLST         422          1.0000000000
      1266       422  TIP3  H2           -2.5787068429      -10.0947035421       -1.6769138365  CLST         422          1.0000000000
      1267       423  TIP3  OH2           1.6787555252        4.9410186469       -4.0095212614  CLST         423          1.0000000000
      1268       423  TIP3  H1            2.4139823529        5.4163088008       -4.4640543001  CLST         423          1.0000000000
      1269       423  TIP3  H2            2.0375273613        4.8569030724       -3.0842438960  CLST         423          1.0000000000
      1270       424  TIP3  OH2          -9.0298745422        4.3426204617        4.3374056380  CLST         424          1.0000000000
      1271       424  TIP3  H1           -8.9365360106        3.6990936826        3.6119277877  CLST         424          1.0000000000
      1272       424  TIP3  H2           -8.2367164021        4.8878753900        4.2160756527  CLST         424          1.0000000000
      1273       425  TIP3  OH2           8.2469963307      -12.7651691294        8.3032534908  CLST         425          1.0000000000
      1274       425  TIP3  H1            8.2961378629      -12.1300782322        7.5504373145  CLST         425          1.0000000000
      1275       425  TIP3  H2            7.8148367049      -12.0846574614        8.8433139921  CLST         425          1.0000000000
      1276       426  TIP3  OH2           8.1756834632        2.3210199516        8.2878673836  CLST         426          1.0000000000
      1277       426  TIP3  H1            8.8456100399        2.1986437608        8.9746265059  CLST         426          1.0000000000
      1278       426  TIP3  H2            8.4447561529        3.2589584466        8.0652934481  CLST         426          1.0000000000
      1279       427  TIP3  OH2          11.4857682845        7.6038349510       10.9437639487  CLST         427          1.0000000000
      1280       427  TIP3  H1           11.2385720381        8.1670117440       11.7074964937  CLST         427          1.0000000000
      1281       427  TIP3  H2           10.6984615734        6.9621656656       10.9221869019  CLST         427          1.0000000000
      1282       428  TIP3  OH2          12.5262394742        7.5481826444        1.1398366380  CLST         428          1.0000000000
      1283       428  TIP3  H1           12.3823443260        7.8114569161        0.1746932871  CLST         428          1.0000000000
      1284       428  TIP3  H2           13.4001628628        7.8053548272        1.2971156074  CLST         428          1.0000000000
      1285       429  TIP3  OH2          12.0217778931       -9.7907622209       -0.7517251896  CLST         429          1.0000000000
      1286       429  TIP3  H1           12.3508287195       -9.3017297419        0.0466994399  CLST         429          1.0000000000
      1287       429  TIP3  H2           11.5709916163       -9.1346868728       -1.3051237534  CLST         429          1.0000000000
      1288       430  TIP3  OH2           9.8123342381       -6.6846650088        3.6227890834  CLST         430          1.0000000000
      1289       430  TIP3  H1            9.6562393466       -7.1271324144        2.7128189580  CLST         430          1.0000000000
      1290       430  TIP3  H2           10.8135971117       -6.7088419819        3.5530193426  CLST         430          1.0000000000
      1291       431  TIP3  OH2         -12.7749244678        9.3498740596       -2.4630574145  CLST         431          1.0000000000
      1292       431  TIP3  H1          -13.2878208374        9.4988250219       -3.1356280142  CLST         431          1.0000000000
      1293       431  TIP3  H2          -13.3655260923        9.4626442309       -1.5541211995  CLST         431          1.0000000000
      1294       432  TIP3  OH2           5.4249243940        8.4266537914      -10.0491269873  CLST         432          1.0000000000
      1295       432  TIP3  H1            6.0011714336        8.5514401754       -9.2699033930  CLST         432          1.0000000000
      1296       432  TIP3  H2            4.7771730825        9.1698092760       -9.9137804962  CLST         432          1.0000000000
      1297       433  TIP3  OH2          -0.6758725204        8.1212404179        7.9399734203  CLST         433          1.0000000000
      1298       433  TIP3  H1           -1.5567931146        8.4402278808        8.2239853183  CLST         433          1.0000000000
      1299       433  TIP3  H2           -0.9425382235        7.4159123221        7.3385058961  CLST         433          1.0000000000
      1300       434  TIP3  OH2          -7.2899594261        0.7553716244        3.7595367217  CLST         434          1.0000000000
      1301       434  TIP3  H1           -7.6675067510        1.4281854994        3.0802139952  CLST         434          1.0000000000
      1302       434  TIP3  H2           -7.8988019058        0.0296293038        3.4425468511  CLST         434          1.0000000000
      1303       435  TIP3  OH2           9.8634598137       -0.4103126627       -7.2401569112  CLST         435          1.0000000000
      1304       435  TIP3  H1            9.6479578730       -0.3467052014       -6.2773181138  CLST         435          1.0000000000
      1305       435  TIP3  H2           10.0576574437        0.5030194954       -7.4018883261  CLST         435          1.0000000000
      1306       436  TIP3  OH2           3.7850832400       10.3856007984       -9.1666500054  CLST         436          1.0000000000
      1307       436  TIP3  H1            4.2413790575       11.1056088533       -8.6257968198  CLST         436          1.0000000000
      1308       436  TIP3  H2            2.8884169038       10.2527386041       -8.7180268271  CLST         436          1.0000000000
      1309       437  TIP3  OH2          -8.3173736147       -0.8211561178       -8.0615226587  CLST         437          1.0000000000
      1310       437  TIP3  H1           -8.5672035528       -0.3949186346       -8.9251817363  CLST         437          1.0000000000
      1311       437  TIP3  H2           -7.3099353907       -0.6607174801       -8.0584267414  CLST         437          1.0000000000
      1312       438  TIP3  OH2          -3.2976905392        5.6437992300       -8.1060427270  CLST         438          1.0000000000
      1313       438  TIP3  H1           -4.0949210371        6.1742070820       -7.8294802497  CLST         438          1.0000000000
      1314       438  TIP3  H2           -3.5172854710        5.7207267709       -9.1016893723  CLST         438          1.0000000000
      1315       439  TIP3  OH2          14.2067818063        1.6858359324       -3.9024230002  CLST         439          1.0000000000
      1316       439  TIP3  H1           13.8088483053        2.6234503965       -3.8682439364  CLST         439          1.0000000000
      1317       439  TIP3  H2           13.6097018020        1.1893097008       -3.1541747642  CLST         439          1.0000000000
      1318       440  TIP3  OH2           1.1055745667      -12.9194152649      -11.0496307788  CLST         440          1.0000000000
      1319       440  TIP3  H1            0.1072435348      -12.7472434976      -11.1239821932  CLST         440          1.0000000000
      1320       440  TIP3  H2            1.2473966062      -13.6625542232      -11.4871639628  CLST         440          1.0000000000
      1321       441  TIP3  OH2          -1.4627177995       -4.1366544561        3.1455693530  CLST         441          1.0000000000
      1322       441  TIP3  H1           -1.6717267337       -3.2957569226        3.1121729568  CLST         441          1.0000000000
      1323       441  TIP3  H2           -1.2015168379       -4.5082257439        4.0434678080  CLST         441          1.0000000000
      1324       442  TIP3  OH2           3.2434295043       -9.7799113352       -7.9090194320  CLST         442          1.0000000000
      1325       442  TIP3  H1            3.6198665561      -10.3050187792       -8.6483646127  CLST         442          1.0000000000
      1326       442  TIP3  H2            2.4147552968       -9.4378478240       -8.3579661319  CLST         442          1.0000000000
      1327       443  TIP3  OH2           1.2599800135       10.2586740000      -12.7897415743  CLST         443          1.0000000000
      1328       443  TIP3  H1            1.4776141017       11.0466072998      -12.1700585211  CLST         443          1.0000000000
      1329       443  TIP3  H2            1.6617672461       10.6557712092      -13.5660312383  CLST         443          1.0000000000
      1330       444  TIP3  OH2          -7.8910080804        1.1567479820       -1.7862576970  CLST         444          1.0000000000
      1331       444  TIP3  H1           -7.9390656962        1.8604236306       -2.5265039186  CLST         444          1.0000000000
      1332       444  TIP3  H2           -7.3543790558        1.7584603718       -1.1827868498  CLST         444          1.0000000000
      1333       445  TIP3  OH2         -11.4907013670       -5.1538331889        6.1494419645  CLST         445          1.0000000000
      1334       445  TIP3  H1          -11.3396112528       -4.2546985030        5.7311009191  CLST         445          1.0000000000
      1335       445  TIP3  H2          -11.5269923983       -4.9226752932        7.1275996982  CLST         445          1.0000000000
      1336       446  TIP3  OH2          -2.8519407517        4.6184525121       -5.3123178633  CLST         446          1.0000000000
      1337       446  TIP3  H1           -3.1660215315        4.9172493671       -6.2100528578  CLST         446          1.0000000000
      1338       446  TIP3  H2           -1.9153593748        4.9757905928       -5.4443938551  CLST         446          1.0000000000
      1339       447  TIP3  OH2          -5.1129993104      -12.7510308161       -3.7830448683  CLST         447          1.0000000000
      1340       447  TIP3  H1           -5.4800521589      -13.4626872605       -3.2999385543  CLST         447          1.0000000000
      1341       447  TIP3  H2           -4.6222638850      -12.2051186089       -3.1424804320  CLST         447          1.0000000000
      1342       448  TIP3  OH2           7.3204731264        9.7638868065        4.7076829073  CLST         448          1.0000000000
      1343       448  TIP3  H1            7.7083707488        9.7578180483        5.6274508880  CLST         448          1.0000000000
      1344       448  TIP3  H2            6.5191577849       10.2907774755        4.9060766953  CLST         448          1.0000000000
      1345       449  TIP3  OH2           4.3428764605        5.1709703240        8.4528809282  CLST         449          1.0000000000
      1346       449  TIP3  H1            5.0229043490        4.5630550140        8.8774672776  CLST         449          1.0000000000
      1347       449  TIP3  H2            3.9500388775        4.5887493185        7.7935692852  CLST         449          1.0000000000
      1348       450  TIP3  OH2          -4.1383441219        0.4353472081       -1.9748588398  CLST         450          1.0000000000
      1349       450  TIP3  H1           -3.5979109520        0.9221006749       -2.6269240355  CLST         450          1.0000000000
      1350       450  TIP3  H2           -3.6284897605       -0.3535426702       -1.7122108216  CLST         450          1.0000000000
      1351       451  TIP3  OH2          13.6460826774       -2.0750418484       -5.7039221403  CLST         451          1.0000000000
      1352       451  TIP3  H1           14.5422260718       -1.8471861895       -5.8401294628  CLST         451          1.0000000000
      1353       451  TIP3  H2           14.1109527188       -0.8390242134       -6.6318052804  CLST         451          1.0000000000
      1354       452  TIP3  OH2           8.5644662326        4.9985446053        8.0753627728  CLST         452          1.0000000000
      1355       452  TIP3  H1            7.7041093218        5.4543270271        7.9474693432  CLST         452          1.0000000000
      1356       452  TIP3  H2            9.2085566748        5.5085742370        7.5462142924  CLST         452          1.0000000000
      1357       453  TIP3  OH2           6.9559194772        2.6655457693       -5.9099613115  CLST         453          1.0000000000
      1358       453  TIP3  H1            6.3227644721        2.0356847656       -5.5445282811  CLST         453          1.0000000000
      1359       453  TIP3  H2            6.4360666095        2.9874574816       -6.6895236694  CLST         453          1.0000000000
      1360       454  TIP3  OH2           1.2635762966        5.4358539159        1.9350174736  CLST         454          1.0000000000
      1361       454  TIP3  H1            0.4120398925        5.1165212740        1.5830974437  CLST         454          1.0000000000
      1362       454  TIP3  H2            0.8827503924        6.0761767947        2.5973061133  CLST         454          1.0000000000
      1363       455  TIP3  OH2          -1.1588821686        0.8895585083      -10.2896210844  CLST         455          1.0000000000
      1364       455  TIP3  H1           -1.0278495695        1.2670764793       -9.3618930661  CLST         455          1.0000000000
      1365       455  TIP3  H2           -1.1369081038        1.8452847428      -10.6536849147  CLST         455          1.0000000000
      1366       456  TIP3  OH2           5.1729973681       11.3680978927        5.2502179645  CLST         456          1.0000000000
      1367       456  TIP3  H1            4.6654740006       11.8245056637        4.5608773721  CLST         456          1.0000000000
      1368       456  TIP3  H2            4.4327835305       10.9982235814        5.7860435150  CLST         456          1.0000000000
      1369       457  TIP3  OH2          -4.8134212813       -7.8554656759        4.7066501753  CLST         457          1.0000000000
      1370       457  TIP3  H1           -5.6204197641       -7.7540864013        5.2090167970  CLST         457          1.0000000000
      1371       457  TIP3  H2           -5.1085280890       -7.4882371210        3.8186911503  CLST         457          1.0000000000
      1372       458  TIP3  OH2           8.0431186437       -6.5342213178      -11.3338687305  CLST         458          1.0000000000
      1373       458  TIP3  H1            9.0164066563       -6.3322495056      -11.4627248632  CLST         458          1.0000000000
      1374       458  TIP3  H2            7.7016643715       -5.7233603506      -10.9278945286  CLST         458          1.0000000000
      1375       459  TIP3  OH2           6.4613952450       -9.9319441821       -7.9126202623  CLST         459          1.0000000000
      1376       459  TIP3  H1            6.0334501435       -9.0803396682       -7.7209369701  CLST         459          1.0000000000
      1377       459  TIP3  H2            7.3001094082       -9.6545615476       -8.4132790357  CLST         459          1.0000000000
      1378       460  TIP3  OH2           9.2978021303       -2.2427968819       -2.8411905392  CLST         460          1.0000000000
      1379       460  TIP3  H1            9.8176352868       -2.5509950459       -2.1106928319  CLST         460          1.0000000000
      1380       460  TIP3  H2           10.0003955650       -1.8581423437       -3.4380226992  CLST         460          1.0000000000
      1381       461  TIP3  OH2          -1.3167606586      -12.8434483610       -5.4310303983  CLST         461          1.0000000000
      1382       461  TIP3  H1           -0.7675398561      -13.3547239258       -6.0595154682  CLST         461          1.0000000000
      1383       461  TIP3  H2           -0.9411988552      -13.2095899254       -4.5702202105  CLST         461          1.0000000000
      1384       462  TIP3  OH2          -0.0839568001        5.4780230191      -12.7278113112  CLST         462          1.0000000000
      1385       462  TIP3  H1            0.0509425234        6.4826576227      -12.5710025088  CLST         462          1.0000000000
      1386       462  TIP3  H2            0.7665501244        5.4195728270      -13.1160726896  CLST         462          1.0000000000
      1387       463  TIP3  OH2          -1.8477432930        1.8943490685       -7.7620979987  CLST         463          1.0000000000
      1388       463  TIP3  H1           -1.5790894957        1.1700800075       -7.1618782075  CLST         463          1.0000000000
      1389       463  TIP3  H2           -2.8249507335        1.9087664924       -7.5468435063  CLST         463          1.0000000000
      1390       464  TIP3  OH2          -6.5498581386        6.1895324129        4.3338619814  CLST         464          1.0000000000
      1391       464  TIP3  H1           -5.8161962364        5.7856408660        4.8567146527  CLST         464          1.0000000000
      1392       464  TIP3  H2           -6.8374079189        6.8913111308        4.9489133368  CLST         464          1.0000000000
      1393       465  TIP3  OH2          -4.4360773575      -12.4972024928        6.3336875179  CLST         465          1.0000000000
      1394       465  TIP3  H1           -3.5680442760      -12.9188155269        6.0052564976  CLST         465          1.0000000000
      1395       465  TIP3  H2           -4.0887216411      -11.5411587577        6.1032484726  CLST         465          1.0000000000
      1396       466  TIP3  OH2          -2.4395290608        9.2910639934       -4.1713418639  CLST         466          1.0000000000
      1397       466  TIP3  H1           -3.0628314868        9.3610263766       -4.9041268637  CLST         466          1.0000000000
      1398       466  TIP3  H2           -2.7385467958        9.9540496736       -3.5352034600  CLST         466          1.0000000000
      1399       467  TIP3  OH2           8.3364661147        6.0107253409        4.7227510788  CLST         467          1.0000000000
      1400       467  TIP3  H1            9.0011365165        6.3845487245        5.3384277561  CLST         467          1.0000000000
      1401       467  TIP3  H2            8.3186563286        6.6920672603        3.9993854019  CLST         467          1.0000000000
      1402       468  TIP3  OH2          -0.4769050663      -12.3025159855       10.4240392144  CLST         468          1.0000000000
      1403       468  TIP3  H1           -1.1697371350      -12.2058499079       11.1592153600  CLST         468          1.0000000000
      1404       468  TIP3  H2            0.3816894917      -12.4537814855       10.9202302504  CLST         468          1.0000000000
      1405       469  TIP3  OH2           5.6401010706        8.2299636874       14.2161515164  CLST         469          1.0000000000
      1406       469  TIP3  H1            6.3109533871        8.2909619531       13.5125923836  CLST         469          1.0000000000
      1407       469  TIP3  H2            4.9253491238        8.8036744794       14.0164053116  CLST         469          1.0000000000
      1408       470  TIP3  OH2         -11.0522401222       12.8334871711        0.7078755447  CLST         470          1.0000000000
      1409       470  TIP3  H1          -11.0718540799       12.6806077937       -0.2489864353  CLST         470          1.0000000000
      1410       470  TIP3  H2          -11.6563027951       12.0961936066        1.0511640106  CLST         470          1.0000000000
      1411       471  TIP3  OH2          -4.4561026327        9.6553402860       -9.0766164514  CLST         471          1.0000000000
      1412       471  TIP3  H1           -4.1791768886        8.7279423488       -9.2950341379  CLST         471          1.0000000000
      1413       471  TIP3  H2           -4.7136259520        9.8832643811      -10.0317763667  CLST         471          1.0000000000
      1414       472  TIP3  OH2         -11.8506337124        3.9161480291        3.0297696876  CLST         472          1.0000000000
      1415       472  TIP3  H1          -12.3804224968        3.0304445089        2.9329240986  CLST         472          1.0000000000
      1416       472  TIP3  H2          -11.2027582022        3.4951812754        2.4057067719  CLST         472          1.0000000000
      1417       473  TIP3  OH2           5.3285437168        0.9401772416       10.1761948901  CLST         473          1.0000000000
      1418       473  TIP3  H1            5.8286874244        1.8068569116       10.1215830215  CLST         473          1.0000000000
      1419       473  TIP3  H2            4.5174541122        1.2829356508       10.5410155757  CLST         473          1.0000000000
      1420       474  TIP3  OH2           1.2410679612        1.6224240709        1.5148723900  CLST         474          1.0000000000
      1421       474  TIP3  H1            0.2851396377        1.7318057882        1.3505761817  CLST         474          1.0000000000
      1422       474  TIP3  H2            1.4734807260        1.1819255633        0.6723376699  CLST         474          1.0000000000
      1423       475  TIP3  OH2           5.9882520898       -8.5347023009       11.9068082645  CLST         475          1.0000000000
      1424       475  TIP3  H1            6.8577697611       -8.7521809973       12.3111543634  CLST         475          1.0000000000
      1425       475  TIP3  H2            6.0516028438       -8.6923311847       10.9360031846  CLST         475          1.0000000000
      1426       476  TIP3  OH2         -11.5557807087       -9.0770928682       -0.0880884322  CLST         476          1.0000000000
      1427       476  TIP3  H1          -11.8332263138       -8.1831680281       -0.4462794276  CLST         476          1.0000000000
      1428       476  TIP3  H2          -11.0814271129       -9.4398087106       -0.8391437815  CLST         476          1.0000000000
      1429       477  TIP3  OH2         -12.5159800725        3.6270648721      -13.5624863139  CLST         477          1.0000000000
      1430       477  TIP3  H1          -12.2558844308        2.7410218627      -13.4081676034  CLST         477          1.0000000000
      1431       477  TIP3  H2          -12.1389255266        3.6213859532      -14.5108258784  CLST         477          1.0000000000
      1432       478  TIP3  OH2          -3.9075030832        6.5607185659      -10.6395335218  CLST         478          1.0000000000
      1433       478  TIP3  H1           -4.3863073075        6.1524326878      -11.4167694885  CLST         478          1.0000000000
      1434       478  TIP3  H2           -3.4364199319        7.2205883389      -11.1951696168  CLST         478          1.0000000000
      1435       479  TIP3  OH2           7.9039541767       -1.4920738450       -8.5488813737  CLST         479          1.0000000000
      1436       479  TIP3  H1            8.7579318991       -1.0493112718       -8.1912581004  CLST         479          1.0000000000
      1437       479  TIP3  H2            7.3074580806       -1.4155455865       -7.7199850480  CLST         479          1.0000000000
      1438       480  TIP3  OH2          -5.9768173846        7.5669336285        0.0280613176  CLST         480          1.0000000000
      1439       480  TIP3  H1           -5.0719578267        7.9591418216       -0.1786556511  CLST         480          1.0000000000
      1440       480  TIP3  H2           -5.7189504534        6.5938626780        0.0637375712  CLST         480          1.0000000000
      1441       481  TIP3  OH2          -2.9141870116        2.3023000886       11.7880889247  CLST         481          1.0000000000
      1442       481  TIP3  H1           -1.9539424894        2.4953118683       11.4138622414  CLST         481          1.0000000000
      1443       481  TIP3  H2           -2.6447151335        1.3629479117       12.0010091412  CLST         481          1.0000000000
      1444       482  TIP3  OH2          -7.9864347830       11.5995336443       -7.6008571325  CLST         482          1.0000000000
      1445       482  TIP3  H1           -8.6426362588       11.4068726501       -8.2891731144  CLST         482          1.0000000000
      1446       482  TIP3  H2           -7.3353065444       12.1793456556       -8.0757642563  CLST         482          1.0000000000
      1447       483  TIP3  OH2           6.1010613630       -5.7542478005       12.6020718403  CLST         483          1.0000000000
      1448       483  TIP3  H1            5.5997574694       -6.5826015841       12.3788493346  CLST         483          1.0000000000
      1449       483  TIP3  H2            6.2083344747       -5.4269876615       11.6795430390  CLST         483          1.0000000000
      1450       484  TIP3  OH2           6.8331414416       -2.9521337144        2.9065233575  CLST         484          1.0000000000
      1451       484  TIP3  H1            5.8757519307       -3.0027613584        2.6733544296  CLST         484          1.0000000000
      1452       484  TIP3  H2            6.7305361331       -2.4575235624        3.7484211735  CLST         484          1.0000000000
      1453       485  TIP3  OH2         -11.7045782042        4.5504195859        9.9928214214  CLST         485          1.0000000000
      1454       485  TIP3  H1          -11.3041536253        3.6198866634       10.0646999979  CLST         485          1.0000000000
      1455       485  TIP3  H2          -12.3652744779        4.3159303913        9.2585872262  CLST         485          1.0000000000
      1456       486  TIP3  OH2           8.5121073597       -7.0599226013       13.5665507791  CLST         486          1.0000000000
      1457       486  TIP3  H1            8.4507463564       -7.0910663061       14.5482552082  CLST         486          1.0000000000
      1458       486  TIP3  H2            7.7409882908       -6.4957273139       13.3477058639  CLST         486          1.0000000000
      1459       487  TIP3  OH2          12.1505614835       -8.4995207510        6.1069125468  CLST         487          1.0000000000
      1460       487  TIP3  H1           11.1888512544       -8.2547695181        6.1362788835  CLST         487          1.0000000000
      1461       487  TIP3  H2           12.3324805635       -8.4922356173        7.0743051525  CLST         487          1.0000000000
      1462       488  TIP3  OH2          15.0065663809        8.3891329777        7.6088571819  CLST         488          1.0000000000
      1463       488  TIP3  H1           15.6553693665        7.7672138665        7.7695346500  CLST         488          1.0000000000
      1464       488  TIP3  H2           14.2407198046        7.8483002645        7.9737408410  CLST         488          1.0000000000
      1465       489  TIP3  OH2          -6.1855237220      -10.8280268373       11.8004280866  CLST         489          1.0000000000
      1466       489  TIP3  H1           -6.4876139802       -9.9539704981       11.5857824923  CLST         489          1.0000000000
      1467       489  TIP3  H2           -6.9316721700      -11.3129569458       11.1982221680  CLST         489          1.0000000000
      1468       490  TIP3  OH2           6.7236558533      -13.0270797788        2.2933039011  CLST         490          1.0000000000
      1469       490  TIP3  H1            6.6888442957      -12.1354466281        2.7462022596  CLST         490          1.0000000000
      1470       490  TIP3  H2            6.9293735825      -13.6821970018        2.9518657071  CLST         490          1.0000000000
      1471       491  TIP3  OH2           2.9925816990       -9.2336358506        5.0885456959  CLST         491          1.0000000000
      1472       491  TIP3  H1            2.1504328203       -8.9402673135        5.4874698320  CLST         491          1.0000000000
      1473       491  TIP3  H2            2.6654981286       -9.8030401123        4.3511880741  CLST         491          1.0000000000
      1474       492  TIP3  OH2          -0.6345371842       -6.5718299690       12.3971258412  CLST         492          1.0000000000
      1475       492  TIP3  H1           -0.6071947901       -7.6394107653       12.1138437994  CLST         492          1.0000000000
      1476       492  TIP3  H2           -1.4782766746       -6.3871214040       12.1618643398  CLST         492          1.0000000000
      1477       493  TIP3  OH2           3.2410312006       10.8120431956        7.1404181528  CLST         493          1.0000000000
      1478       493  TIP3  H1            3.9012257126       11.0233033482        7.7998622301  CLST         493          1.0000000000
      1479       493  TIP3  H2            2.5966926123       10.3281550047        7.7132052956  CLST         493          1.0000000000
      1480       494  TIP3  OH2          -9.3022944422        5.4495612211       -0.7303517288  CLST         494          1.0000000000
      1481       494  TIP3  H1           -9.3389463613        6.1701761993       -1.3975137448  CLST         494          1.0000000000
      1482       494  TIP3  H2          -10.0363226156        5.6841766640       -0.1193657713  CLST         494          1.0000000000
      1483       495  TIP3  OH2           5.2113091121       -6.7870794324       -2.0610771923  CLST         495          1.0000000000
      1484       495  TIP3  H1            5.6571255387       -6.3792841727       -2.8763012895  CLST         495          1.0000000000
      1485       495  TIP3  H2            6.0680544570       -7.2576689963       -1.7815230914  CLST         495          1.0000000000
      1486       496  TIP3  OH2         -12.7633015596      -10.7719641410        7.5369867493  CLST         496          1.0000000000
      1487       496  TIP3  H1          -13.6068788327      -10.8986015190        7.8365345323  CLST         496          1.0000000000
      1488       496  TIP3  H2          -12.5522731474      -11.5020135184        6.9024183206  CLST         496          1.0000000000
      1489       497  TIP3  OH2          -9.5843238360      -13.4443659716       -7.2567293026  CLST         497          1.0000000000
      1490       497  TIP3  H1          -10.1591804973      -14.1167635488       -7.1896865972  CLST         497          1.0000000000
      1491       497  TIP3  H2           -9.9660017375      -12.9951339699       -8.0186974629  CLST         497          1.0000000000
      1492       498  TIP3  OH2          -5.4943858855        0.4408043860      -11.1180913499  CLST         498          1.0000000000
      1493       498  TIP3  H1           -5.8581757928        0.3413108836      -12.0258549591  CLST         498          1.0000000000
      1494       498  TIP3  H2           -5.3113902040        1.3928713841      -11.0178048958  CLST         498          1.0000000000
      1495       499  TIP3  OH2          11.5955996487        6.5399131947        3.6409653130  CLST         499          1.0000000000
      1496       499  TIP3  H1           12.1544690745        6.8881453581        2.9244235731  CLST         499          1.0000000000
      1497       499  TIP3  H2           11.2250755425        7.3402389344        4.0278273609  CLST         499          1.0000000000
      1498       500  TIP3  OH2           2.3480647823       -8.6955087705      -13.2932321743  CLST         500          1.0000000000
      1499       500  TIP3  H1            1.8208802003       -8.8543165770      -13.9272298119  CLST         500          1.0000000000
      1500       500  TIP3  H2            2.4856934389       -9.5385486523      -12.7393485820  CLST         500          1.0000000000
      1501       501  TIP3  OH2           1.4032803935      -10.8696219160       14.0408962026  CLST         501          1.0000000000
      1502       501  TIP3  H1            1.2574189068      -11.7486609475       14.2776583617  CLST         501          1.0000000000
      1503       501  TIP3  H2            2.3604687875      -10.7035815699       14.0708223615  CLST         501          1.0000000000
      1504       502  TIP3  OH2           6.1051164281        3.7543466962        9.7332478043  CLST         502          1.0000000000
      1505       502  TIP3  H1            6.3884954968        4.2216709647       10.5509999890  CLST         502          1.0000000000
      1506       502  TIP3  H2            6.9186858556        3.3456474912        9.3759880903  CLST         502          1.0000000000
      1507       503  TIP3  OH2          10.4513006806       -0.7877044997        0.1703108013  CLST         503          1.0000000000
      1508       503  TIP3  H1           11.4319765073       -0.7109874794        0.3807165453  CLST         503          1.0000000000
      1509       503  TIP3  H2           10.3057370404        0.0850538352       -0.3234629610  CLST         503          1.0000000000
      1510       504  TIP3  OH2           8.3343056081      -13.8014564370       10.9827890667  CLST         504          1.0000000000
      1511       504  TIP3  H1            8.1230749249      -13.7448664667       10.0402099063  CLST         504          1.0000000000
      1512       504  TIP3  H2            8.0584527209      -14.7526857611       11.0700867543  CLST         504          1.0000000000
      1513       505  TIP3  OH2           3.5059427368      -10.8325494386       -5.5930720988  CLST         505          1.0000000000
      1514       505  TIP3  H1            3.3685075707      -10.3295323191       -6.4283251523  CLST         505          1.0000000000
      1515       505  TIP3  H2            3.4499516490      -10.2414236134       -4.8798727626  CLST         505          1.0000000000
      1516       506  TIP3  OH2          -9.2168475993       -3.4730930637       -8.0764103699  CLST         506          1.0000000000
      1517       506  TIP3  H1           -8.9252367895       -2.4885780877       -8.0575826495  CLST         506          1.0000000000
      1518       506  TIP3  H2           -9.8877490216       -3.3174315994       -8.7858827749  CLST         506          1.0000000000
      1519       507  TIP3  OH2          11.1131956933        9.8126053169      -12.7779980564  CLST         507          1.0000000000
      1520       507  TIP3  H1           11.4231720200       10.0172428853      -13.5428864511  CLST         507          1.0000000000
      1521       507  TIP3  H2           11.0509719187        8.7999852540      -12.4919801605  CLST         507          1.0000000000
      1522       508  TIP3  OH2           9.1250236859       12.2511729187        8.9782968521  CLST         508          1.0000000000
      1523       508  TIP3  H1            8.8281114469       11.7876679001        8.1790438630  CLST         508          1.0000000000
      1524       508  TIP3  H2            9.9912930496       12.5538418191        8.6046777954  CLST         508          1.0000000000
      1525       509  TIP3  OH2          -0.8731003890       -1.4831796623      -11.3225018703  CLST         509          1.0000000000
      1526       509  TIP3  H1           -1.8115341706       -1.8221423801      -11.2392166917  CLST         509          1.0000000000
      1527       509  TIP3  H2           -0.9866417010       -0.5612560161      -10.9762764886  CLST         509          1.0000000000
      1528       510  TIP3  OH2           8.1417023935        2.1990831497       11.7115278204  CLST         510          1.0000000000
      1529       510  TIP3  H1            8.1192026428        1.1820824146       11.6189099980  CLST         510          1.0000000000
      1530       510  TIP3  H2            8.9346433783        2.3512634385       11.1749635197  CLST         510          1.0000000000
      1531       511  TIP3  OH2          -8.7306249833       -5.8880475541       -0.8371643130  CLST         511          1.0000000000
      1532       511  TIP3  H1           -9.6833452510       -6.0938164767       -1.0212256293  CLST         511          1.0000000000
      1533       511  TIP3  H2           -8.7371438146       -5.1128151387       -1.4116133775  CLST         511          1.0000000000
      1534       512  TIP3  OH2          10.1159235469        7.0785323839        6.9273855751  CLST         512          1.0000000000
      1535       512  TIP3  H1           10.5122243571        7.6597423672        7.6148384047  CLST         512          1.0000000000
      1536       512  TIP3  H2           10.1443244252        7.7648921415        6.2086609560  CLST         512          1.0000000000
      1537       513  TIP3  OH2         -11.8214071590       10.5093233946        9.2694148003  CLST         513          1.0000000000
      1538       513  TIP3  H1          -11.3008323786       11.2277317076        9.6980120270  CLST         513          1.0000000000
      1539       513  TIP3  H2          -11.6896890437        9.7944400229        9.9112355405  CLST         513          1.0000000000
      1540       514  TIP3  OH2          -4.8907490901        4.8919126032        0.1916676861  CLST         514          1.0000000000
      1541       514  TIP3  H1           -4.1062216115        5.2726548148        0.6788557600  CLST         514          1.0000000000
      1542       514  TIP3  H2           -4.5412788421        4.8050488977       -0.7134545808  CLST         514          1.0000000000
      1543       515  TIP3  OH2          -0.6678213332        0.9795740462       -4.2697418774  CLST         515          1.0000000000
      1544       515  TIP3  H1           -1.5338737868        1.4729331449       -4.0596862440  CLST         515          1.0000000000
      1545       515  TIP3  H2           -0.1093344385        1.7256270894       -4.6027951432  CLST         515          1.0000000000
      1546       516  TIP3  OH2          -7.3667038708       -8.6494639520        6.3557274118  CLST         516          1.0000000000
      1547       516  TIP3  H1           -7.7664018003       -8.2880570831        5.5137559003  CLST         516          1.0000000000
      1548       516  TIP3  H2           -7.7420855366       -7.8537080443        6.8946665811  CLST         516          1.0000000000
      1549       517  TIP3  OH2           0.5343593695       10.9865975569       11.4272520135  CLST         517          1.0000000000
      1550       517  TIP3  H1            0.6168398265       10.8706023854       10.4626540025  CLST         517          1.0000000000
      1551       517  TIP3  H2           -0.4599761338       11.2236372987       11.4672076243  CLST         517          1.0000000000
      1552       518  TIP3  OH2         -11.6615444564       -3.4319644367      -11.4892295987  CLST         518          1.0000000000
      1553       518  TIP3  H1          -12.1588781726       -3.3625495699      -12.3019875530  CLST         518          1.0000000000
      1554       518  TIP3  H2          -10.8942961414       -3.8609810939      -11.9693311026  CLST         518          1.0000000000
      1555       519  TIP3  OH2           2.1307537055        3.4014979864        3.2974797025  CLST         519          1.0000000000
      1556       519  TIP3  H1            1.7058949414        4.1261772846        2.7298875507  CLST         519          1.0000000000
      1557       519  TIP3  H2            1.9029387880        2.6271292512        2.7140621563  CLST         519          1.0000000000
      1558       520  TIP3  OH2         -10.2831047619        6.1492367525        8.1759932038  CLST         520          1.0000000000
      1559       520  TIP3  H1          -10.6311280261        5.6025546577        7.4184745861  CLST         520          1.0000000000
      1560       520  TIP3  H2          -10.5933293221        5.5676130933        8.9243553848  CLST         520          1.0000000000
      1561       521  TIP3  OH2           8.3400819552       -8.8475406452       -9.5251174405  CLST         521          1.0000000000
      1562       521  TIP3  H1            8.7292614689       -9.2836217599      -10.3438943706  CLST         521          1.0000000000
      1563       521  TIP3  H2            8.1313922254       -8.0241229770      -10.0414379485  CLST         521          1.0000000000
      1564       522  TIP3  OH2          -5.5117174492       -7.2176600269        8.0811789489  CLST         522          1.0000000000
      1565       522  TIP3  H1           -5.5811232512       -8.0141623998        7.5713376025  CLST         522          1.0000000000
      1566       522  TIP3  H2           -4.5566924608       -7.3854718536        8.3554968265  CLST         522          1.0000000000
      1567       523  TIP3  OH2          -3.9549185987       12.1502626763      -13.6814566008  CLST         523          1.0000000000
      1568       523  TIP3  H1           -2.9510910810       11.9301130063      -13.4770359980  CLST         523          1.0000000000
      1569       523  TIP3  H2           -3.9723005459       12.8341786774      -14.1575894179  CLST         523          1.0000000000
      1570       524  TIP3  OH2           7.1009982024        3.8349105662       -1.8110206534  CLST         524          1.0000000000
      1571       524  TIP3  H1            7.4102884892        3.0589906776       -2.2887183822  CLST         524          1.0000000000
      1572       524  TIP3  H2            6.1360177487        3.8031782511       -1.9564113409  CLST         524          1.0000000000
      1573       525  TIP3  OH2           0.4517217354        6.9256572037       -2.4532002915  CLST         525          1.0000000000
      1574       525  TIP3  H1            0.7215801466        6.3386328972       -3.2027088606  CLST         525          1.0000000000
      1575       525  TIP3  H2            0.2170124527        6.1440302698       -1.8690944007  CLST         525          1.0000000000
      1576       526  TIP3  OH2           7.0596474648       -5.6711044902       -3.7085127589  CLST         526          1.0000000000
      1577       526  TIP3  H1            7.3192198663       -5.6829018905       -4.6694459551  CLST         526          1.0000000000
      1578       526  TIP3  H2            7.9496261755       -5.8781221085       -3.3334689196  CLST         526          1.0000000000
      1579       527  TIP3  OH2           0.3638704773        7.3018808849        3.9525060418  CLST         527          1.0000000000
      1580       527  TIP3  H1            1.0240114802        7.6586450620        4.5587961604  CLST         527          1.0000000000
      1581       527  TIP3  H2           -0.2190157813        7.8169379805        3.3955723757  CLST         527          1.0000000000
      1582       528  TIP3  OH2          -2.6791770851        9.8646825023        8.9335572723  CLST         528          1.0000000000
      1583       528  TIP3  H1           -3.1235449003        9.7554891472        9.8080998343  CLST         528          1.0000000000
      1584       528  TIP3  H2           -3.4716732167        9.9030520010        8.3564044912  CLST         528          1.0000000000
      1585       529  TIP3  OH2          -5.9337415721       12.2831175393       -9.2830115559  CLST         529          1.0000000000
      1586       529  TIP3  H1           -5.0253998486       12.0449302355       -9.0622604738  CLST         529          1.0000000000
      1587       529  TIP3  H2           -5.9208823442       11.8274022085      -10.1570477615  CLST         529          1.0000000000
      1588       530  TIP3  OH2          -4.4255025392       -5.5955905951      -13.0629711963  CLST         530          1.0000000000
      1589       530  TIP3  H1           -4.3374819040       -6.5590643260      -13.1630416690  CLST         530          1.0000000000
      1590       530  TIP3  H2           -3.5027344845       -5.3533982504      -12.8210261523  CLST         530          1.0000000000
      1591       531  TIP3  OH2         -11.5533743314       -0.1463701275       10.3135593112  CLST         531          1.0000000000
      1592       531  TIP3  H1          -12.1967914296       -0.0096637002       11.0372326049  CLST         531          1.0000000000
      1593       531  TIP3  H2          -11.7955303755       -0.8550941512        9.7414801079  CLST         531          1.0000000000
      1594       532  TIP3  OH2         -12.0810677825       -3.1373436250       -8.7953080087  CLST         532          1.0000000000
      1595       532  TIP3  H1          -12.7557094900       -3.8267621507       -8.7287855286  CLST         532          1.0000000000
      1596       532  TIP3  H2          -11.9432398986       -3.1390287650       -9.8172067778  CLST         532          1.0000000000
      1597       533  TIP3  OH2          -2.7967134699       -7.2770716925        8.8263410428  CLST         533          1.0000000000
      1598       533  TIP3  H1           -2.1101918358       -7.8323533880        8.3760505136  CLST         533          1.0000000000
      1599       533  TIP3  H2           -2.3679740901       -6.3983049015        8.4949613955  CLST         533          1.0000000000
      1600       534  TIP3  OH2           0.4006794903      -13.3046894102       -7.6011647591  CLST         534          1.0000000000
      1601       534  TIP3  H1            0.5252961595      -12.7390781169       -8.3594705486  CLST         534          1.0000000000
      1602       534  TIP3  H2            1.3635903837      -13.5084872222       -7.3040275612  CLST         534          1.0000000000
      1603       535  TIP3  OH2           2.8814515858        3.4340595206       -7.5197099574  CLST         535          1.0000000000
      1604       535  TIP3  H1            3.2776458711        2.6452571724       -6.9793571497  CLST         535          1.0000000000
      1605       535  TIP3  H2            2.0819640708        3.5193629426       -6.9274381490  CLST         535          1.0000000000
      1606       536  TIP3  OH2           7.8145269681      -12.6445385478       -3.4140555386  CLST         536          1.0000000000
      1607       536  TIP3  H1            7.2696046182      -12.5921668505       -4.2475221671  CLST         536          1.0000000000
      1608       536  TIP3  H2            8.4449980961      -13.1877180790       -3.7770036991  CLST         536          1.0000000000
      1609       537  TIP3  OH2          11.7187282975       -2.6464496051       -7.5047554654  CLST         537          1.0000000000
      1610       537  TIP3  H1           11.0001574885       -1.9611842307       -7.5688265082  CLST         537          1.0000000000
      1611       537  TIP3  H2           12.2840670566       -2.1864444931       -6.8381659549  CLST         537          1.0000000000
      1612       538  TIP3  OH2          -5.1716995106      -10.8958574373        0.6651584688  CLST         538          1.0000000000
      1613       538  TIP3  H1           -4.3397413489      -11.2233469801        1.0902023879  CLST         538          1.0000000000
      1614       538  TIP3  H2           -4.9751403101       -9.8953358509        0.7114303610  CLST         538          1.0000000000
      1615       539  TIP3  OH2           2.4232448658       -5.0648666374        0.9632814478  CLST         539          1.0000000000
      1616       539  TIP3  H1            1.5263307399       -5.3583336509        1.2371814025  CLST         539          1.0000000000
      1617       539  TIP3  H2            2.2898784979       -5.3667937248        0.0501155814  CLST         539          1.0000000000
      1618       540  TIP3  OH2           4.0476410969       -6.6836361632        4.6993661837  CLST         540          1.0000000000
      1619       540  TIP3  H1            3.7087955111       -7.6501013938        4.8651836091  CLST         540          1.0000000000
      1620       540  TIP3  H2            4.2238230273       -6.8463558218        3.7356021987  CLST         540          1.0000000000
      1621       541  TIP3  OH2          -5.5500562044       10.4422977710        2.1304817370  CLST         541          1.0000000000
      1622       541  TIP3  H1           -6.1383667093       10.5905545517        2.9496938242  CLST         541          1.0000000000
      1623       541  TIP3  H2           -4.8799801389       11.1622312022        2.2475704959  CLST         541          1.0000000000
      1624       542  TIP3  OH2         -10.9746292536       14.3398713508        5.5894100759  CLST         542          1.0000000000
      1625       542  TIP3  H1          -10.8418604939       15.2564964494        5.3359223425  CLST         542          1.0000000000
      1626       542  TIP3  H2          -10.7346178878       13.9214746908        4.6481536279  CLST         542          1.0000000000
      1627       543  TIP3  OH2         -10.6271025917       11.4832102552       -2.5188501057  CLST         543          1.0000000000
      1628       543  TIP3  H1          -11.1457245119       10.7004064612       -2.7848331008  CLST         543          1.0000000000
      1629       543  TIP3  H2          -10.5694604899       11.9275648179       -3.3699932658  CLST         543          1.0000000000
      1630       544  TIP3  OH2          -0.4191887132        5.5562456454       -5.6415980390  CLST         544          1.0000000000
      1631       544  TIP3  H1           -0.2225016972        5.0911268159       -6.5129950960  CLST         544          1.0000000000
      1632       544  TIP3  H2            0.2480197140        5.1998792966       -4.9990008944  CLST         544          1.0000000000
      1633       545  TIP3  OH2          -7.9062099960        2.4961366216      -12.6067246229  CLST         545          1.0000000000
      1634       545  TIP3  H1           -8.1113645340        2.2051788096      -13.5279230459  CLST         545          1.0000000000
      1635       545  TIP3  H2           -8.5789012710        3.2600568633      -12.4788418826  CLST         545          1.0000000000
      1636       546  TIP3  OH2           3.8114331831       11.0832188376       -2.2756011768  CLST         546          1.0000000000
      1637       546  TIP3  H1            3.4164744008       10.1300066267       -2.1950010499  CLST         546          1.0000000000
      1638       546  TIP3  H2            4.4961017355       11.0142175527       -1.5313246318  CLST         546          1.0000000000
      1639       547  TIP3  OH2          -3.5538101023       -2.2482914820      -11.0765619138  CLST         547          1.0000000000
      1640       547  TIP3  H1           -3.7093050256       -2.1575495621      -10.1308473559  CLST         547          1.0000000000
      1641       547  TIP3  H2           -3.9656008690       -1.4549384019      -11.3971462787  CLST         547          1.0000000000
      1642       548  TIP3  OH2          10.4029101703        2.2694396532        1.3483383689  CLST         548          1.0000000000
      1643       548  TIP3  H1            9.3837599508        2.1475802297        1.4460031069  CLST         548          1.0000000000
      1644       548  TIP3  H2           10.3963339118        3.0747273850        1.9519646537  CLST         548          1.0000000000
