* Geometry rescue: EQUI at step 11000
*
        1644  EXT
         1         1  TIP3  OH2           4.5680258285       -1.5348113969       -2.2839298052  CLST           1          1.0000000000
         2         1  TIP3  H1            4.8814142557       -1.7868719216       -1.3544636567  CLST           1          1.0000000000
         3         1  TIP3  H2            5.3492541760       -1.9542975352       -2.7131518258  CLST           1          1.0000000000
         4         2  TIP3  OH2          10.6940743525        7.4853287767      -11.8718371481  CLST           2          1.0000000000
         5         2  TIP3  H1           10.9814205909        7.2046328113      -10.9780613862  CLST           2          1.0000000000
         6         2  TIP3  H2            9.6720096899        7.4132816018      -11.7435554107  CLST           2          1.0000000000
         7         3  TIP3  OH2           8.8361959394        5.3436118639       -4.3385646406  CLST           3          1.0000000000
         8         3  TIP3  H1            9.1878081702        5.5128050372       -3.4407111961  CLST           3          1.0000000000
         9         3  TIP3  H2            8.2028522720        6.0836294403       -4.4519522774  CLST           3          1.0000000000
        10         4  TIP3  OH2          -2.8515606922        6.7117651662       10.1326840403  CLST           4          1.0000000000
        11         4  TIP3  H1           -3.5535953457        7.1736876403        9.5507836125  CLST           4          1.0000000000
        12         4  TIP3  H2           -3.0565062711        7.2882094690       10.8893363118  CLST           4          1.0000000000
        13         5  TIP3  OH2           9.1533711207        6.2894568337       10.7540636741  CLST           5          1.0000000000
        14         5  TIP3  H1            8.7427225318        5.5055727822       11.1369398727  CLST           5          1.0000000000
        15         5  TIP3  H2            8.8337730486        6.0916999661        9.8380180690  CLST           5          1.0000000000
        16         6  TIP3  OH2          10.6685879368       -5.9251043398      -11.5990070338  CLST           6          1.0000000000
        17         6  TIP3  H1           11.1339559690       -5.4442145700      -10.8387864388  CLST           6          1.0000000000
        18         6  TIP3  H2           10.7348518187       -5.1042750213      -12.1813421055  CLST           6          1.0000000000
        19         7  TIP3  OH2         -12.3902505649        8.3219462926        5.6880310971  CLST           7          1.0000000000
        20         7  TIP3  H1          -12.7662494606        9.1438763264        6.1214644198  CLST           7          1.0000000000
        21         7  TIP3  H2          -11.5498071880        8.3091691695        6.2029253395  CLST           7          1.0000000000
        22         8  TIP3  OH2          -4.5737630000       -8.3322199763        0.7033195829  CLST           8          1.0000000000
        23         8  TIP3  H1           -5.0957387935       -7.5727869172        1.0247495050  CLST           8          1.0000000000
        24         8  TIP3  H2           -3.7766902599       -7.8222652212        0.4768641734  CLST           8          1.0000000000
        25         9  TIP3  OH2           2.6982313486      -14.2133227006       -4.1804732357  CLST           9          1.0000000000
        26         9  TIP3  H1            1.9011781538      -14.4090609340       -3.6787223644  CLST           9          1.0000000000
        27         9  TIP3  H2            3.0998948471      -13.6431994210       -3.4719789078  CLST           9          1.0000000000
        28        10  TIP3  OH2         -14.1744935591       -1.1838543901       -0.3570879865  CLST          10          1.0000000000
        29        10  TIP3  H1          -13.7147586855       -1.4689531763       -1.1852867970  CLST          10          1.0000000000
        30        10  TIP3  H2          -14.5444298697       -1.9097169079        0.1142067797  CLST          10          1.0000000000
        31        11  TIP3  OH2           6.8521592800        6.6811198326       -1.8714770955  CLST          11          1.0000000000
        32        11  TIP3  H1            7.1430257380        5.7574078016       -2.0532471817  CLST          11          1.0000000000
        33        11  TIP3  H2            6.8949600386        7.1232309289       -2.7420260341  CLST          11          1.0000000000
        34        12  TIP3  OH2          -8.2318777781        2.6190776215        1.9957542130  CLST          12          1.0000000000
        35        12  TIP3  H1           -7.7135573245        2.8647824759        1.1592987438  CLST          12          1.0000000000
        36        12  TIP3  H2           -9.1009228388        2.4493163286        1.5141150634  CLST          12          1.0000000000
        37        13  TIP3  OH2           7.6892670840        2.4272766477        2.0588157162  CLST          13          1.0000000000
        38        13  TIP3  H1            7.3347054659        3.1997724758        1.5818024495  CLST          13          1.0000000000
        39        13  TIP3  H2            7.5201795392        2.6920113268        2.9863651985  CLST          13          1.0000000000
        40        14  TIP3  OH2          -0.2432380097        2.1825967319        7.9560735031  CLST          14          1.0000000000
        41        14  TIP3  H1            0.1111101878        3.0319544600        7.5940013648  CLST          14          1.0000000000
        42        14  TIP3  H2            0.5145792904        1.5637058036        7.6099642067  CLST          14          1.0000000000
        43        15  TIP3  OH2          -8.9387771158       -3.8496439587      -12.7298607426  CLST          15          1.0000000000
        44        15  TIP3  H1           -8.1731550052       -3.7733678843      -13.3129872121  CLST          15          1.0000000000
        45        15  TIP3  H2           -8.5782295015       -4.5932589312      -12.1786738003  CLST          15          1.0000000000
        46        16  TIP3  OH2          -3.8833985263      -12.6986922452       -6.2776266415  CLST          16          1.0000000000
        47        16  TIP3  H1           -4.3902750851      -12.7794700702       -5.4152935200  CLST          16          1.0000000000
        48        16  TIP3  H2           -2.9479014535      -12.6695496392       -5.9163760646  CLST          16          1.0000000000
        49        17  TIP3  OH2           5.0197014665      -13.3603632585       -8.5257153286  CLST          17          1.0000000000
        50        17  TIP3  H1            5.4928191435      -13.3451269773       -7.6635242110  CLST          17          1.0000000000
        51        17  TIP3  H2            4.1235353634      -13.4264637159       -8.0476162882  CLST          17          1.0000000000
        52        18  TIP3  OH2         -11.5846619809       -6.8150603386       -1.4231016125  CLST          18          1.0000000000
        53        18  TIP3  H1          -11.9228248025       -5.9089150655       -1.7889899862  CLST          18          1.0000000000
        54        18  TIP3  H2          -11.5935435119       -7.2575877466       -2.3322506528  CLST          18          1.0000000000
        55        19  TIP3  OH2          11.0514179917        0.0049684545        9.5837567054  CLST          19          1.0000000000
        56        19  TIP3  H1           10.5216857882       -0.8115809292        9.7278050053  CLST          19          1.0000000000
        57        19  TIP3  H2           11.0731332630        0.0242041863        8.5920304049  CLST          19          1.0000000000
        58        20  TIP3  OH2         -13.3653055448        1.4231620921        2.7316358829  CLST          20          1.0000000000
        59        20  TIP3  H1          -13.0800704951        1.2166298892        1.7888059176  CLST          20          1.0000000000
        60        20  TIP3  H2          -14.2229900304        1.8055100677        2.5736017757  CLST          20          1.0000000000
        61        21  TIP3  OH2         -10.0730604619       12.7800333979       -5.3506649287  CLST          21          1.0000000000
        62        21  TIP3  H1          -10.7316683609       13.0562190200       -5.8699578939  CLST          21          1.0000000000
        63        21  TIP3  H2           -9.3843500941       12.5589266968       -6.0076790687  CLST          21          1.0000000000
        64        22  TIP3  OH2           2.8168244615       12.1208572360       -6.5292103392  CLST          22          1.0000000000
        65        22  TIP3  H1            3.3182808786       11.3243661278       -6.1814991148  CLST          22          1.0000000000
        66        22  TIP3  H2            3.1748105929       12.7407455792       -5.8051658026  CLST          22          1.0000000000
        67        23  TIP3  OH2           5.6435407667       -1.6742846418       11.4620982922  CLST          23          1.0000000000
        68        23  TIP3  H1            4.8923077928       -2.0891770025       10.9685544130  CLST          23          1.0000000000
        69        23  TIP3  H2            5.4125653963       -0.7519641392       11.1892610802  CLST          23          1.0000000000
        70        24  TIP3  OH2          -0.0658911164        1.1424323215        4.4790274095  CLST          24          1.0000000000
        71        24  TIP3  H1            0.5320769928        1.0718609716        5.2646079672  CLST          24          1.0000000000
        72        24  TIP3  H2           -0.8126173568        0.6328424461        4.8963985585  CLST          24          1.0000000000
        73        25  TIP3  OH2           3.2281638422        2.0729394804       -2.6557460133  CLST          25          1.0000000000
        74        25  TIP3  H1            3.7288954472        1.5989553576       -1.9046628125  CLST          25          1.0000000000
        75        25  TIP3  H2            3.5979293708        2.9904391750       -2.5702669955  CLST          25          1.0000000000
        76        26  TIP3  OH2          11.2327253341        5.5032042816       -6.6103333032  CLST          26          1.0000000000
        77        26  TIP3  H1           10.3885654658        5.2788789577       -7.0949058836  CLST          26          1.0000000000
        78        26  TIP3  H2           10.9915277285        6.2516406216       -6.0498145409  CLST          26          1.0000000000
        79        27  TIP3  OH2         -10.3873394983        7.2746350186       -5.3844342473  CLST          27          1.0000000000
        80        27  TIP3  H1          -10.6028418655        7.5089747509       -4.4001818175  CLST          27          1.0000000000
        81        27  TIP3  H2          -10.9381389442        7.7738890237       -5.8679901637  CLST          27          1.0000000000
        82        28  TIP3  OH2          -4.3497649180      -10.1536096567       -6.8753964191  CLST          28          1.0000000000
        83        28  TIP3  H1           -4.3868376710      -11.1413292846       -6.6136891688  CLST          28          1.0000000000
        84        28  TIP3  H2           -5.3139933485      -10.0125784511       -6.6483979124  CLST          28          1.0000000000
        85        29  TIP3  OH2         -10.7511956467        7.5103033497       -2.7214907188  CLST          29          1.0000000000
        86        29  TIP3  H1          -10.1504813759        8.1525303057       -2.2119313166  CLST          29          1.0000000000
        87        29  TIP3  H2          -11.6347492204        7.8617831065       -2.5183516846  CLST          29          1.0000000000
        88        30  TIP3  OH2           8.8256910029      -10.4771254409       -2.0836087399  CLST          30          1.0000000000
        89        30  TIP3  H1            9.2482507864      -11.1394322824       -1.4755407499  CLST          30          1.0000000000
        90        30  TIP3  H2            8.5474629587      -11.2105774557       -2.7425842566  CLST          30          1.0000000000
        91        31  TIP3  OH2          -9.7177662147       -1.2928730808      -13.0741314782  CLST          31          1.0000000000
        92        31  TIP3  H1           -9.6973034434       -2.2543850684      -12.8118032629  CLST          31          1.0000000000
        93        31  TIP3  H2           -9.6393166742       -0.8541188047      -12.1800435468  CLST          31          1.0000000000
        94        32  TIP3  OH2          -8.7401317933       -6.4447961573        7.0201751545  CLST          32          1.0000000000
        95        32  TIP3  H1           -9.7054380820       -6.3223210240        7.1447229292  CLST          32          1.0000000000
        96        32  TIP3  H2           -8.6859703134       -5.9146113054        6.1712610601  CLST          32          1.0000000000
        97        33  TIP3  OH2          11.8283477525       -8.9510372042        8.8271582688  CLST          33          1.0000000000
        98        33  TIP3  H1           11.9177313782       -9.8722567468        9.1490232405  CLST          33          1.0000000000
        99        33  TIP3  H2           11.3176651637       -8.5486978376        9.5254276769  CLST          33          1.0000000000
       100        34  TIP3  OH2           4.2400061881       -3.9161419880        2.6543987776  CLST          34          1.0000000000
       101        34  TIP3  H1            3.5400316676       -4.1030019762        1.9222248632  CLST          34          1.0000000000
       102        34  TIP3  H2            4.4138418331       -4.8572174074        2.8610271005  CLST          34          1.0000000000
       103        35  TIP3  OH2           6.0728026028       -0.8452348069        4.4962316210  CLST          35          1.0000000000
       104        35  TIP3  H1            5.3006553251       -0.9960728059        5.0028956023  CLST          35          1.0000000000
       105        35  TIP3  H2            6.6852276501       -0.3533911919        5.1522738057  CLST          35          1.0000000000
       106        36  TIP3  OH2          -1.6073862331        1.2917268869        2.1463765737  CLST          36          1.0000000000
       107        36  TIP3  H1           -2.3045830466        0.6545863608        2.4658903382  CLST          36          1.0000000000
       108        36  TIP3  H2           -1.1381750356        1.2224835500        3.0196474787  CLST          36          1.0000000000
       109        37  TIP3  OH2          -4.4207147130       -8.4173202154      -13.0952117593  CLST          37          1.0000000000
       110        37  TIP3  H1           -5.0573676319       -8.5102035739      -12.3909428271  CLST          37          1.0000000000
       111        37  TIP3  H2           -3.9896601246       -9.2748820765      -13.3070968047  CLST          37          1.0000000000
       112        38  TIP3  OH2          -3.0801216369        2.2519776043       -4.5181441779  CLST          38          1.0000000000
       113        38  TIP3  H1           -2.8315280540        3.1231206188       -4.9554251394  CLST          38          1.0000000000
       114        38  TIP3  H2           -3.4285865565        1.7654790498       -5.3030457770  CLST          38          1.0000000000
       115        39  TIP3  OH2           1.7495079863      -10.9064776374        2.2010877789  CLST          39          1.0000000000
       116        39  TIP3  H1            1.5789317319      -11.3275962311        3.0622193762  CLST          39          1.0000000000
       117        39  TIP3  H2            0.8434831096      -10.5861990074        1.9820124926  CLST          39          1.0000000000
       118        40  TIP3  OH2          -7.1095745094       12.5256586087        8.3021552150  CLST          40          1.0000000000
       119        40  TIP3  H1           -8.0204140700       12.8307199019        8.0208609764  CLST          40          1.0000000000
       120        40  TIP3  H2           -6.5693430482       12.8718632528        7.5644641450  CLST          40          1.0000000000
       121        41  TIP3  OH2           9.7833000829       -2.2724220665      -10.9518657694  CLST          41          1.0000000000
       122        41  TIP3  H1            9.1040444233       -3.0271944683      -10.6996315462  CLST          41          1.0000000000
       123        41  TIP3  H2            9.2623191042       -1.5824113315      -10.5221499531  CLST          41          1.0000000000
       124        42  TIP3  OH2           9.6104542263       10.2838941875      -10.6244455329  CLST          42          1.0000000000
       125        42  TIP3  H1           10.3806727170       10.1419722452      -10.0066472270  CLST          42          1.0000000000
       126        42  TIP3  H2           10.0955990905       10.2753825936      -11.4819072846  CLST          42          1.0000000000
       127        43  TIP3  OH2          12.1040566734       12.7958605910        7.5953076456  CLST          43          1.0000000000
       128        43  TIP3  H1           12.7971039107       13.4409352950        7.4901674507  CLST          43          1.0000000000
       129        43  TIP3  H2           12.5623356894       12.0506692362        7.9843514109  CLST          43          1.0000000000
       130        44  TIP3  OH2           7.7010021788        0.9982860766        6.0168926861  CLST          44          1.0000000000
       131        44  TIP3  H1            7.9928682939        1.4312606618        6.9163086248  CLST          44          1.0000000000
       132        44  TIP3  H2            7.4976267582        1.9249521021        5.6162586585  CLST          44          1.0000000000
       133        45  TIP3  OH2           7.9769009016        9.3447205771        7.3833357132  CLST          45          1.0000000000
       134        45  TIP3  H1            7.6002492384        8.4321439627        7.5532229082  CLST          45          1.0000000000
       135        45  TIP3  H2            8.8911643693        9.3416762204        7.7823390268  CLST          45          1.0000000000
       136        46  TIP3  OH2          -5.6452091119       -3.2385859777      -12.9986809024  CLST          46          1.0000000000
       137        46  TIP3  H1           -5.2315168150       -4.0844286761      -13.3815588252  CLST          46          1.0000000000
       138        46  TIP3  H2           -4.8841826636       -3.0493028567      -12.3811302399  CLST          46          1.0000000000
       139        47  TIP3  OH2           1.4777519965       -6.5110340622      -11.0171358718  CLST          47          1.0000000000
       140        47  TIP3  H1            1.9078883937       -5.5786768258      -10.9418191396  CLST          47          1.0000000000
       141        47  TIP3  H2            1.1016374032       -6.3018765041      -11.9181223273  CLST          47          1.0000000000
       142        48  TIP3  OH2           5.0384451897        5.6253933361        1.0891680147  CLST          48          1.0000000000
       143        48  TIP3  H1            5.9390381831        5.3305096163        0.7647768032  CLST          48          1.0000000000
       144        48  TIP3  H2            5.2606039808        6.5942586980        1.0734584884  CLST          48          1.0000000000
       145        49  TIP3  OH2          -3.2602746509      -10.6836610117      -13.8265037520  CLST          49          1.0000000000
       146        49  TIP3  H1           -2.4274640480      -11.1173698513      -13.6893964082  CLST          49          1.0000000000
       147        49  TIP3  H2           -3.7978237050      -11.2607553763      -13.2570253363  CLST          49          1.0000000000
       148        50  TIP3  OH2           2.8713722729        3.6861858335        5.8784220609  CLST          50          1.0000000000
       149        50  TIP3  H1            2.0779024323        4.0783557679        6.3471167587  CLST          50          1.0000000000
       150        50  TIP3  H2            2.4677930713        3.6073845389        4.9598753896  CLST          50          1.0000000000
       151        51  TIP3  OH2          -6.4295824772      -10.0924678410       -4.8774501775  CLST          51          1.0000000000
       152        51  TIP3  H1           -6.5514302774       -9.9973985065       -3.8880237354  CLST          51          1.0000000000
       153        51  TIP3  H2           -6.5695299630      -11.0553827226       -4.9589040421  CLST          51          1.0000000000
       154        52  TIP3  OH2           9.1503672291       -5.7263367768       -0.0767117385  CLST          52          1.0000000000
       155        52  TIP3  H1            9.3735865498       -5.3456710396       -0.9815064899  CLST          52          1.0000000000
       156        52  TIP3  H2            8.9120016695       -4.8520276952        0.3487687979  CLST          52          1.0000000000
       157        53  TIP3  OH2          -9.6851424676        9.7701436304      -12.4261657007  CLST          53          1.0000000000
       158        53  TIP3  H1           -9.8048530199        9.6358348396      -13.3045083396  CLST          53          1.0000000000
       159        53  TIP3  H2           -8.7787406471        9.3170331843      -12.3643371456  CLST          53          1.0000000000
       160        54  TIP3  OH2           0.4761932415       -2.8260489363       -9.4295917466  CLST          54          1.0000000000
       161        54  TIP3  H1            1.3142728248       -3.2345245515       -9.7477934478  CLST          54          1.0000000000
       162        54  TIP3  H2            0.2146963940       -2.2573716403      -10.2803855488  CLST          54          1.0000000000
       163        55  TIP3  OH2           3.0019214229       -4.0101125490      -14.6073645112  CLST          55          1.0000000000
       164        55  TIP3  H1            3.2326233677       -4.9332930407      -14.3800591710  CLST          55          1.0000000000
       165        55  TIP3  H2            2.7865780293       -4.0244683601      -15.5546123030  CLST          55          1.0000000000
       166        56  TIP3  OH2         -10.0280319861       11.2256498336        5.7196384006  CLST          56          1.0000000000
       167        56  TIP3  H1          -10.0558853313       10.3540099957        6.1891025730  CLST          56          1.0000000000
       168        56  TIP3  H2          -10.3107582813       10.9995666526        4.8022028590  CLST          56          1.0000000000
       169        57  TIP3  OH2           1.4942021417      -13.3463684697        0.3092945501  CLST          57          1.0000000000
       170        57  TIP3  H1            1.6522486188      -12.4869326238        0.7792622716  CLST          57          1.0000000000
       171        57  TIP3  H2            2.3330220497      -13.2594844129       -0.1865636322  CLST          57          1.0000000000
       172        58  TIP3  OH2         -13.1533614599       10.5938270658        6.9872143334  CLST          58          1.0000000000
       173        58  TIP3  H1          -12.5017373882       11.1815596998        6.5481443900  CLST          58          1.0000000000
       174        58  TIP3  H2          -12.8197484868       10.6881127492        7.9050415426  CLST          58          1.0000000000
       175        59  TIP3  OH2         -11.5975396696       -2.7746408036        5.4352486509  CLST          59          1.0000000000
       176        59  TIP3  H1          -11.8764539544       -2.6148126295        6.3841806516  CLST          59          1.0000000000
       177        59  TIP3  H2          -11.6546191853       -1.8314219993        5.1046132024  CLST          59          1.0000000000
       178        60  TIP3  OH2           1.3331833585        9.5909751851        8.6262787260  CLST          60          1.0000000000
       179        60  TIP3  H1            0.5687337755        9.1014269687        8.2561135944  CLST          60          1.0000000000
       180        60  TIP3  H2            1.8200004277        8.7334206077        8.8926788503  CLST          60          1.0000000000
       181        61  TIP3  OH2           2.7652459267       -0.5920287999       -5.3794258194  CLST          61          1.0000000000
       182        61  TIP3  H1            3.2489465658       -1.4943694102       -5.3866913653  CLST          61          1.0000000000
       183        61  TIP3  H2            2.0943870135       -0.7192476856       -6.0927267517  CLST          61          1.0000000000
       184        62  TIP3  OH2           8.1137038914        8.4220980322       12.4721090659  CLST          62          1.0000000000
       185        62  TIP3  H1            8.2090008854        7.5289429225       12.1062802334  CLST          62          1.0000000000
       186        62  TIP3  H2            8.3388699194        9.0139274339       11.7127009808  CLST          62          1.0000000000
       187        63  TIP3  OH2           4.6161533344       -6.9301953826      -10.2944699578  CLST          63          1.0000000000
       188        63  TIP3  H1            3.7670746895       -6.7826974834      -10.7715010465  CLST          63          1.0000000000
       189        63  TIP3  H2            5.1488928978       -7.3641029066      -10.9983636347  CLST          63          1.0000000000
       190        64  TIP3  OH2          -2.3627434069       11.8251397558        5.4749558458  CLST          64          1.0000000000
       191        64  TIP3  H1           -2.4375866003       10.8362517126        5.5298244352  CLST          64          1.0000000000
       192        64  TIP3  H2           -1.6676229905       11.9134250992        6.1911361260  CLST          64          1.0000000000
       193        65  TIP3  OH2          10.8657709022       -4.3143764335       -5.3989369156  CLST          65          1.0000000000
       194        65  TIP3  H1           11.2762492345       -3.9711146830       -6.2371651408  CLST          65          1.0000000000
       195        65  TIP3  H2           10.3587052819       -3.4977733272       -5.2312754205  CLST          65          1.0000000000
       196        66  TIP3  OH2           6.2784457706       -9.8167186051        9.4092464805  CLST          66          1.0000000000
       197        66  TIP3  H1            5.5808536316       -9.5624398289        8.7452607539  CLST          66          1.0000000000
       198        66  TIP3  H2            7.0374748158       -9.2925576338        9.0815690249  CLST          66          1.0000000000
       199        67  TIP3  OH2         -11.5516584675       -7.5794897493       -3.7731255092  CLST          67          1.0000000000
       200        67  TIP3  H1          -10.9113604566       -6.9760260175       -4.2224483190  CLST          67          1.0000000000
       201        67  TIP3  H2          -11.6723712103       -8.2751737066       -4.4023100782  CLST          67          1.0000000000
       202        68  TIP3  OH2          -0.8246112017       -5.4999457221        5.3501511189  CLST          68          1.0000000000
       203        68  TIP3  H1            0.1681599993       -5.5007183082        5.5305116644  CLST          68          1.0000000000
       204        68  TIP3  H2           -1.0429145059       -5.2854815305        6.2800139261  CLST          68          1.0000000000
       205        69  TIP3  OH2           7.8181571330       11.6051527806       -8.8231981999  CLST          69          1.0000000000
       206        69  TIP3  H1            8.2576771588       11.2777323103       -9.6654246102  CLST          69          1.0000000000
       207        69  TIP3  H2            8.6813989072       11.7876505398       -8.3163553693  CLST          69          1.0000000000
       208        70  TIP3  OH2          -0.9292067927      -12.3535933029       -0.4786046773  CLST          70          1.0000000000
       209        70  TIP3  H1            0.0111727014      -12.7433601710       -0.4509797915  CLST          70          1.0000000000
       210        70  TIP3  H2           -1.1601366622      -12.6361412779        0.4545488805  CLST          70          1.0000000000
       211        71  TIP3  OH2         -10.2640430737       -7.3691271835        2.0443343493  CLST          71          1.0000000000
       212        71  TIP3  H1          -10.6572934256       -6.5664024240        2.4073097885  CLST          71          1.0000000000
       213        71  TIP3  H2          -10.8966206201       -7.6622240704        1.3620847028  CLST          71          1.0000000000
       214        72  TIP3  OH2           0.1849276231        2.0657435943       -1.4886900557  CLST          72          1.0000000000
       215        72  TIP3  H1           -0.2178305183        1.1592155832       -1.6700193885  CLST          72          1.0000000000
       216        72  TIP3  H2            1.0685378171        1.9214128947       -1.9151134788  CLST          72          1.0000000000
       217        73  TIP3  OH2          -9.6347815601       13.0639444492        7.5213440976  CLST          73          1.0000000000
       218        73  TIP3  H1           -9.7850427850       12.3067860773        6.8727758793  CLST          73          1.0000000000
       219        73  TIP3  H2          -10.1565481355       13.7139043183        6.9156509907  CLST          73          1.0000000000
       220        74  TIP3  OH2           6.5056823375       -2.8579116947       -3.7197669247  CLST          74          1.0000000000
       221        74  TIP3  H1            6.5758634572       -3.7596889941       -3.3063555851  CLST          74          1.0000000000
       222        74  TIP3  H2            7.3844535985       -2.5017563035       -3.4275991144  CLST          74          1.0000000000
       223        75  TIP3  OH2           2.8584014244      -13.3313798692       -6.5884337326  CLST          75          1.0000000000
       224        75  TIP3  H1            2.9130280482      -12.4928098625       -6.0576829820  CLST          75          1.0000000000
       225        75  TIP3  H2            2.7910780868      -13.9361298966       -5.8001246894  CLST          75          1.0000000000
       226        76  TIP3  OH2           3.9679297538       -9.7704607567        1.3476764948  CLST          76          1.0000000000
       227        76  TIP3  H1            4.1282455013       -8.8211375160        1.4925905882  CLST          76          1.0000000000
       228        76  TIP3  H2            3.1301227787      -10.0330001206        1.7815858833  CLST          76          1.0000000000
       229        77  TIP3  OH2          10.2832989415       -8.2487281202       -2.6593840616  CLST          77          1.0000000000
       230        77  TIP3  H1            9.7503982978       -9.0767905879       -2.4633479381  CLST          77          1.0000000000
       231        77  TIP3  H2           10.0438282117       -8.1634839028       -3.6386554787  CLST          77          1.0000000000
       232        78  TIP3  OH2          10.5929514995       11.7552005673       -7.9036091053  CLST          78          1.0000000000
       233        78  TIP3  H1           11.2839126749       11.0583747923       -8.1013498160  CLST          78          1.0000000000
       234        78  TIP3  H2           10.9402812673       12.5210297472       -7.7915354669  CLST          78          1.0000000000
       235        79  TIP3  OH2          12.8750635779        0.5900836705        1.1882336379  CLST          79          1.0000000000
       236        79  TIP3  H1           13.7031341076        0.3906544208        1.3282944396  CLST          79          1.0000000000
       237        79  TIP3  H2           12.4094300422        1.3772901551        1.4507320189  CLST          79          1.0000000000
       238        80  TIP3  OH2          -7.5112932750       -0.0212823129        6.5643921650  CLST          80          1.0000000000
       239        80  TIP3  H1           -7.5000646283        0.4797722293        5.7383473176  CLST          80          1.0000000000
       240        80  TIP3  H2           -6.6157366362       -0.4830607039        6.5336617534  CLST          80          1.0000000000
       241        81  TIP3  OH2          -7.5618711667      -10.8840534415        2.3204365737  CLST          81          1.0000000000
       242        81  TIP3  H1           -6.7367723259      -10.9702014350        1.7184194001  CLST          81          1.0000000000
       243        81  TIP3  H2           -7.1295850772      -11.1033173803        3.1843863824  CLST          81          1.0000000000
       244        82  TIP3  OH2          -1.6383059045       -9.9001751933       -6.4851006336  CLST          82          1.0000000000
       245        82  TIP3  H1           -2.6118000715       -9.8699365694       -6.4793774497  CLST          82          1.0000000000
       246        82  TIP3  H2           -1.5010233492      -10.6177985699       -5.8441287011  CLST          82          1.0000000000
       247        83  TIP3  OH2          12.4135081027       -8.4957930838        1.5644635358  CLST          83          1.0000000000
       248        83  TIP3  H1           12.6339718049       -8.0626085052        2.4613029449  CLST          83          1.0000000000
       249        83  TIP3  H2           11.4526943169       -8.2398821198        1.5493727008  CLST          83          1.0000000000
       250        84  TIP3  OH2          -3.6330603577       10.9870341941       -2.0869365685  CLST          84          1.0000000000
       251        84  TIP3  H1           -4.5132230290       10.8856508267       -2.6100911626  CLST          84          1.0000000000
       252        84  TIP3  H2           -3.5531386043       11.8272800044       -2.0576115291  CLST          84          1.0000000000
       253        85  TIP3  OH2           5.8190751324       -2.1222259069        0.0116547540  CLST          85          1.0000000000
       254        85  TIP3  H1            5.8271978325       -1.5597997919        0.7997562424  CLST          85          1.0000000000
       255        85  TIP3  H2            6.4841626087       -2.7903983918        0.3112289369  CLST          85          1.0000000000
       256        86  TIP3  OH2           6.5681541515       -8.4253908076        5.7937603735  CLST          86          1.0000000000
       257        86  TIP3  H1            5.9616590392       -8.6906619527        6.5284647946  CLST          86          1.0000000000
       258        86  TIP3  H2            6.2565801884       -7.4841094745        5.7229507222  CLST          86          1.0000000000
       259        87  TIP3  OH2          -1.1915963915       -3.6793826237       10.6319526150  CLST          87          1.0000000000
       260        87  TIP3  H1           -0.6230928145       -4.0873945470       11.3690187347  CLST          87          1.0000000000
       261        87  TIP3  H2           -2.0541386057       -4.0474001529       10.7910591630  CLST          87          1.0000000000
       262        88  TIP3  OH2          -0.8565046471        4.3966188658       -7.9461744029  CLST          88          1.0000000000
       263        88  TIP3  H1           -1.2825532737        3.4928067693       -7.7828284690  CLST          88          1.0000000000
       264        88  TIP3  H2           -1.6820509299        4.9537762353       -7.9936722200  CLST          88          1.0000000000
       265        89  TIP3  OH2           3.4357210877        0.8648114805      -11.7767439366  CLST          89          1.0000000000
       266        89  TIP3  H1            3.5628958516        1.5042106472      -12.4254862282  CLST          89          1.0000000000
       267        89  TIP3  H2            3.4842587127        0.0086324215      -12.2086979923  CLST          89          1.0000000000
       268        90  TIP3  OH2           5.4260116005       11.2189279020       -5.4735919698  CLST          90          1.0000000000
       269        90  TIP3  H1            4.9142834483       11.9607406441       -4.7989085928  CLST          90          1.0000000000
       270        90  TIP3  H2            5.3818801321       11.8637300212       -6.2534109572  CLST          90          1.0000000000
       271        91  TIP3  OH2           6.0322296812       -7.8641115965      -12.2589055188  CLST          91          1.0000000000
       272        91  TIP3  H1            6.3700052010       -8.7806313087      -12.3967128257  CLST          91          1.0000000000
       273        91  TIP3  H2            6.9057452121       -7.3452373944      -12.0886188638  CLST          91          1.0000000000
       274        92  TIP3  OH2           9.8005888963       11.5664406181        2.4485120434  CLST          92          1.0000000000
       275        92  TIP3  H1           10.0733725752       11.8421157239        3.3468114386  CLST          92          1.0000000000
       276        92  TIP3  H2            9.4872385130       12.3846645761        2.0750985365  CLST          92          1.0000000000
       277        93  TIP3  OH2          -8.6733030450        7.1310956326        2.5918628418  CLST          93          1.0000000000
       278        93  TIP3  H1           -8.5034002397        8.0772166398        2.7457836839  CLST          93          1.0000000000
       279        93  TIP3  H2           -7.7767088185        6.7988344288        2.9300793486  CLST          93          1.0000000000
       280        94  TIP3  OH2         -14.1698339965        6.5225713017        6.3637662309  CLST          94          1.0000000000
       281        94  TIP3  H1          -13.6635450806        7.3633200144        6.1456361179  CLST          94          1.0000000000
       282        94  TIP3  H2          -14.3286386979        6.3712508757        5.3911653413  CLST          94          1.0000000000
       283        95  TIP3  OH2           9.7635915202        5.7029786636       -1.8493001201  CLST          95          1.0000000000
       284        95  TIP3  H1            9.7561152572        5.8734208920       -0.8726886375  CLST          95          1.0000000000
       285        95  TIP3  H2           10.5720075545        5.1119379582       -1.8102518241  CLST          95          1.0000000000
       286        96  TIP3  OH2           9.5204883064      -11.0108809061       11.2762171847  CLST          96          1.0000000000
       287        96  TIP3  H1           10.2942109744      -11.2467918544       10.6618354669  CLST          96          1.0000000000
       288        96  TIP3  H2            9.2231412394      -11.9079004258       11.4269038515  CLST          96          1.0000000000
       289        97  TIP3  OH2          -7.5764201282        6.9343339264        8.4036971909  CLST          97          1.0000000000
       290        97  TIP3  H1           -7.3412607649        6.0153832673        8.8386921171  CLST          97          1.0000000000
       291        97  TIP3  H2           -8.5499147879        6.6471707854        8.2703381842  CLST          97          1.0000000000
       292        98  TIP3  OH2           5.8462257567        0.6460325872       -3.5205959031  CLST          98          1.0000000000
       293        98  TIP3  H1            6.4656955197        0.3525493390       -2.8354636836  CLST          98          1.0000000000
       294        98  TIP3  H2            5.1073245679        0.0666055692       -3.1802317472  CLST          98          1.0000000000
       295        99  TIP3  OH2          -6.8767149959      -11.4901363995        4.8847157374  CLST          99          1.0000000000
       296        99  TIP3  H1           -6.9146977065      -11.1548750177        5.8139855802  CLST          99          1.0000000000
       297        99  TIP3  H2           -6.0871080171      -12.0673030857        4.9960953216  CLST          99          1.0000000000
       298       100  TIP3  OH2           2.2742334476        0.5403177589       -9.0751070996  CLST         100          1.0000000000
       299       100  TIP3  H1            2.7579862887        0.5469575002      -10.0236384261  CLST         100          1.0000000000
       300       100  TIP3  H2            2.2815959182        1.5976383842       -8.9167137192  CLST         100          1.0000000000
       301       101  TIP3  OH2          12.5872708310       -7.0067809267        3.8739970495  CLST         101          1.0000000000
       302       101  TIP3  H1           12.5705867136       -7.5500321466        4.7197219121  CLST         101          1.0000000000
       303       101  TIP3  H2           13.3003433595       -6.4459531994        4.0654464397  CLST         101          1.0000000000
       304       102  TIP3  OH2         -12.1139053272       10.3773795900        1.3567493338  CLST         102          1.0000000000
       305       102  TIP3  H1          -12.8149141863        9.9087318877        1.9820234094  CLST         102          1.0000000000
       306       102  TIP3  H2          -12.3524089785        9.9157966294        0.5480634565  CLST         102          1.0000000000
       307       103  TIP3  OH2          -0.6462458543       -9.2599112158        7.5631643036  CLST         103          1.0000000000
       308       103  TIP3  H1            0.0595456884       -9.3877627664        8.2469921916  CLST         103          1.0000000000
       309       103  TIP3  H2           -1.1997435944      -10.0300670190        7.9857154322  CLST         103          1.0000000000
       310       104  TIP3  OH2          -4.4012101900      -12.1595386618        9.9800376553  CLST         104          1.0000000000
       311       104  TIP3  H1           -5.0320931073      -11.6566477496       10.5768058763  CLST         104          1.0000000000
       312       104  TIP3  H2           -5.0203524711      -12.6877928135        9.4760356014  CLST         104          1.0000000000
       313       105  TIP3  OH2          -5.2069833690       10.6566195315      -11.4707618051  CLST         105          1.0000000000
       314       105  TIP3  H1           -4.8263950978       11.1336701403      -12.2278744767  CLST         105          1.0000000000
       315       105  TIP3  H2           -5.9294172262       10.1827697285      -11.8589484236  CLST         105          1.0000000000
       316       106  TIP3  OH2           7.4465352835       -8.0474396888       -1.2895593621  CLST         106          1.0000000000
       317       106  TIP3  H1            8.2472600082       -7.5193933665       -1.4180235667  CLST         106          1.0000000000
       318       106  TIP3  H2            7.7179820106       -8.9620523460       -1.4521226827  CLST         106          1.0000000000
       319       107  TIP3  OH2          -8.4940901354       -4.6786585524        5.1178220046  CLST         107          1.0000000000
       320       107  TIP3  H1           -8.9312689485       -4.1227967625        4.4532994171  CLST         107          1.0000000000
       321       107  TIP3  H2           -7.5402455648       -4.5407531614        4.9186780803  CLST         107          1.0000000000
       322       108  TIP3  OH2         -10.4641671630        2.0208886378        9.5386082177  CLST         108          1.0000000000
       323       108  TIP3  H1           -9.4907843154        1.8336006072        9.5003526916  CLST         108          1.0000000000
       324       108  TIP3  H2          -10.8516093308        1.1883658967        9.8945236915  CLST         108          1.0000000000
       325       109  TIP3  OH2           2.4497922991        7.0641176020        8.8329066455  CLST         109          1.0000000000
       326       109  TIP3  H1            1.8524273554        6.5914848162        9.4530326443  CLST         109          1.0000000000
       327       109  TIP3  H2            3.2356333188        6.4421105085        8.7700427074  CLST         109          1.0000000000
       328       110  TIP3  OH2           1.6662902531       12.4244891137      -11.1290939270  CLST         110          1.0000000000
       329       110  TIP3  H1            1.9899763010       13.2274254203      -11.2138423423  CLST         110          1.0000000000
       330       110  TIP3  H2            1.2475372268       12.3272465860      -10.2097392409  CLST         110          1.0000000000
       331       111  TIP3  OH2          11.8352312347      -11.7193443868        9.4889752483  CLST         111          1.0000000000
       332       111  TIP3  H1           12.7043437541      -11.9008090380        9.6315737716  CLST         111          1.0000000000
       333       111  TIP3  H2           11.5127593028      -12.5930846355        9.1682329275  CLST         111          1.0000000000
       334       112  TIP3  OH2           6.4311625214       -0.1681263834        1.7721240579  CLST         112          1.0000000000
       335       112  TIP3  H1            7.0469156090        0.6090595778        1.9022076191  CLST         112          1.0000000000
       336       112  TIP3  H2            6.1543670575       -0.2657309457        2.7033887137  CLST         112          1.0000000000
       337       113  TIP3  OH2         -12.8892778964        0.9153851698        0.0604441506  CLST         113          1.0000000000
       338       113  TIP3  H1          -13.5279445177        0.1204134728       -0.0709956466  CLST         113          1.0000000000
       339       113  TIP3  H2          -12.3431860482        0.8080535074       -0.7609672890  CLST         113          1.0000000000
       340       114  TIP3  OH2         -13.8474976405        3.5733889821       -0.3326832957  CLST         114          1.0000000000
       341       114  TIP3  H1          -13.5585490582        2.6819825744       -0.0647930821  CLST         114          1.0000000000
       342       114  TIP3  H2          -13.2062537027        3.6634389435       -1.1130740316  CLST         114          1.0000000000
       343       115  TIP3  OH2          -8.8682590585        0.3436829415      -10.8038821851  CLST         115          1.0000000000
       344       115  TIP3  H1           -7.9878743101        0.4707246820      -11.2297908224  CLST         115          1.0000000000
       345       115  TIP3  H2           -9.0680560192        1.2934019419      -10.9390999824  CLST         115          1.0000000000
       346       116  TIP3  OH2           6.9328547784       -5.6989667605        2.0748306032  CLST         116          1.0000000000
       347       116  TIP3  H1            7.7895455500       -6.0480214364        1.8005117379  CLST         116          1.0000000000
       348       116  TIP3  H2            7.0460145858       -4.7650357713        2.3026447753  CLST         116          1.0000000000
       349       117  TIP3  OH2          -0.8894789452       -0.0079733761       12.5336279890  CLST         117          1.0000000000
       350       117  TIP3  H1           -0.0543893668       -0.5087996990       12.7395846280  CLST         117          1.0000000000
       351       117  TIP3  H2           -0.9142915192        0.5519912253       13.3258792078  CLST         117          1.0000000000
       352       118  TIP3  OH2           0.0967569873       -9.6004838037        5.0239969200  CLST         118          1.0000000000
       353       118  TIP3  H1           -0.0568806154       -9.4170296101        5.9791913098  CLST         118          1.0000000000
       354       118  TIP3  H2           -0.2971906640       -8.8705028939        4.4907966078  CLST         118          1.0000000000
       355       119  TIP3  OH2          -9.2747200368      -10.3649046500       -8.8637781673  CLST         119          1.0000000000
       356       119  TIP3  H1           -9.4956185946      -10.8353529503       -9.7286550447  CLST         119          1.0000000000
       357       119  TIP3  H2           -8.9197540661       -9.5375532864       -9.2223710381  CLST         119          1.0000000000
       358       120  TIP3  OH2           9.5372406404       -8.0721746244        1.1375471747  CLST         120          1.0000000000
       359       120  TIP3  H1            8.8450489525       -8.5972538611        0.6671892798  CLST         120          1.0000000000
       360       120  TIP3  H2            9.4760447836       -7.2725722380        0.5016618886  CLST         120          1.0000000000
       361       121  TIP3  OH2          -5.6258965374       -0.2891832969       -8.0932989484  CLST         121          1.0000000000
       362       121  TIP3  H1           -5.5162301426       -0.1323603135       -9.0581351011  CLST         121          1.0000000000
       363       121  TIP3  H2           -4.8616184930       -0.9290992270       -7.9233736308  CLST         121          1.0000000000
       364       122  TIP3  OH2          10.3420095660       12.1617915423        5.1556896529  CLST         122          1.0000000000
       365       122  TIP3  H1            9.4961971605       12.5546545804        5.4978413162  CLST         122          1.0000000000
       366       122  TIP3  H2           10.9456188569       12.3424715876        5.9123720960  CLST         122          1.0000000000
       367       123  TIP3  OH2          -7.3653354208       -5.5174697272      -11.1712362387  CLST         123          1.0000000000
       368       123  TIP3  H1           -6.6083056304       -6.0505036015      -11.5372464759  CLST         123          1.0000000000
       369       123  TIP3  H2           -7.2232238399       -5.5377816823      -10.2236309928  CLST         123          1.0000000000
       370       124  TIP3  OH2          -5.9862412894       -8.5392591125      -10.7260715754  CLST         124          1.0000000000
       371       124  TIP3  H1           -5.2075254121       -8.6618017770      -10.1297209552  CLST         124          1.0000000000
       372       124  TIP3  H2           -6.6581887401       -8.2437219741      -10.0772087491  CLST         124          1.0000000000
       373       125  TIP3  OH2         -13.4157679097        4.0813476451        8.0261816392  CLST         125          1.0000000000
       374       125  TIP3  H1          -13.2729347904        3.3222313586        7.4838973468  CLST         125          1.0000000000
       375       125  TIP3  H2          -13.7293969859        4.8264160639        7.4193253394  CLST         125          1.0000000000
       376       126  TIP3  OH2          -7.0441686241      -10.7051339790      -12.2077602415  CLST         126          1.0000000000
       377       126  TIP3  H1           -6.2769704636      -11.2754300844      -12.0134144581  CLST         126          1.0000000000
       378       126  TIP3  H2           -6.7825463606       -9.8608272006      -11.7782032348  CLST         126          1.0000000000
       379       127  TIP3  OH2          -7.3413254446      -11.5490512811       -7.0741908972  CLST         127          1.0000000000
       380       127  TIP3  H1           -7.8708428229      -12.3457918576       -7.0017241962  CLST         127          1.0000000000
       381       127  TIP3  H2           -7.7243758734      -11.1902465378       -7.8858210331  CLST         127          1.0000000000
       382       128  TIP3  OH2           9.9958315550        0.7751738914       -2.5135815652  CLST         128          1.0000000000
       383       128  TIP3  H1            9.0874786020        0.4378734602       -2.2962626077  CLST         128          1.0000000000
       384       128  TIP3  H2            9.7305529003        1.4636280968       -3.1704586053  CLST         128          1.0000000000
       385       129  TIP3  OH2          -7.9437943698        9.4850502543        1.0606255746  CLST         129          1.0000000000
       386       129  TIP3  H1           -7.1655253833       10.0754803200        1.2179744042  CLST         129          1.0000000000
       387       129  TIP3  H2           -7.3760844900        8.7280036533        0.6891220283  CLST         129          1.0000000000
       388       130  TIP3  OH2          -4.0273723313        3.9325914189       10.0869860751  CLST         130          1.0000000000
       389       130  TIP3  H1           -3.4369297033        4.7005182441        9.9880310575  CLST         130          1.0000000000
       390       130  TIP3  H2           -3.7609865447        3.4537286414       10.9032249376  CLST         130          1.0000000000
       391       131  TIP3  OH2           7.9822631665       -3.8206591215       -9.8131649563  CLST         131          1.0000000000
       392       131  TIP3  H1            7.9309978663       -2.9918765233       -9.2162320028  CLST         131          1.0000000000
       393       131  TIP3  H2            6.9705436529       -3.8638759405       -9.8889824387  CLST         131          1.0000000000
       394       132  TIP3  OH2         -11.5347757327       11.4431113233       12.0454359067  CLST         132          1.0000000000
       395       132  TIP3  H1          -11.0332912469       12.1923947704       11.4972714510  CLST         132          1.0000000000
       396       132  TIP3  H2          -11.9649452368       11.6698702976       12.7537096209  CLST         132          1.0000000000
       397       133  TIP3  OH2          10.4098713003        9.3978281384        8.5959102082  CLST         133          1.0000000000
       398       133  TIP3  H1           10.3180261363        9.1500500193        9.5542549896  CLST         133          1.0000000000
       399       133  TIP3  H2           11.3220933299        9.7973323854        8.6858048643  CLST         133          1.0000000000
       400       134  TIP3  OH2          -7.6343405968        5.8909953721       -6.0847934025  CLST         134          1.0000000000
       401       134  TIP3  H1           -8.4283404279        6.4140772489       -5.9423378974  CLST         134          1.0000000000
       402       134  TIP3  H2           -7.2598455248        5.8477388628       -5.1539605116  CLST         134          1.0000000000
       403       135  TIP3  OH2          10.8065822018      -11.2687264309      -13.2328772428  CLST         135          1.0000000000
       404       135  TIP3  H1           11.2781948070      -10.5572775646      -12.7762549336  CLST         135          1.0000000000
       405       135  TIP3  H2           10.9394566982      -10.9513638016      -14.0776092865  CLST         135          1.0000000000
       406       136  TIP3  OH2          -4.2038904810        1.9998328880       -7.2252847022  CLST         136          1.0000000000
       407       136  TIP3  H1           -4.8142685323        1.2130393319       -7.4663563941  CLST         136          1.0000000000
       408       136  TIP3  H2           -4.8600000943        2.4491638776       -6.6136776491  CLST         136          1.0000000000
       409       137  TIP3  OH2          13.0490978647       10.3201405752        9.0520865664  CLST         137          1.0000000000
       410       137  TIP3  H1           13.0879481197       10.0795091007       10.0208629193  CLST         137          1.0000000000
       411       137  TIP3  H2           13.8058321311        9.8399959639        8.6925681455  CLST         137          1.0000000000
       412       138  TIP3  OH2          -0.7982169157       -9.9278185155        1.6439872706  CLST         138          1.0000000000
       413       138  TIP3  H1           -0.9667761398       -9.7955953195        0.7035600582  CLST         138          1.0000000000
       414       138  TIP3  H2           -0.9267194674       -9.0842362824        2.1315838215  CLST         138          1.0000000000
       415       139  TIP3  OH2          -9.5543364747      -10.8682321387        4.5998267604  CLST         139          1.0000000000
       416       139  TIP3  H1          -10.0251232860      -10.9104223688        3.7698380700  CLST         139          1.0000000000
       417       139  TIP3  H2           -8.6948710666      -11.2743489999        4.4462349921  CLST         139          1.0000000000
       418       140  TIP3  OH2          -7.1516646837        3.4796928558       -0.4114347541  CLST         140          1.0000000000
       419       140  TIP3  H1           -6.3717215359        4.0774307753       -0.1942092911  CLST         140          1.0000000000
       420       140  TIP3  H2           -7.8550341552        4.1439639009       -0.6281992765  CLST         140          1.0000000000
       421       141  TIP3  OH2           2.0141014912       -4.5088967190       -3.6590899077  CLST         141          1.0000000000
       422       141  TIP3  H1            1.5023908630       -3.7697684629       -3.2920125504  CLST         141          1.0000000000
       423       141  TIP3  H2            2.5786634127       -3.8773362755       -4.1929240587  CLST         141          1.0000000000
       424       142  TIP3  OH2         -11.7130572458       -0.0811852185        4.6934264543  CLST         142          1.0000000000
       425       142  TIP3  H1          -11.7838347033        0.5696288364        5.4241861664  CLST         142          1.0000000000
       426       142  TIP3  H2          -12.0616798266        0.4323774174        3.9321714210  CLST         142          1.0000000000
       427       143  TIP3  OH2           9.3972451553       -5.8560251908       -8.3013636746  CLST         143          1.0000000000
       428       143  TIP3  H1            9.6887864757       -5.0973799444       -8.8420264803  CLST         143          1.0000000000
       429       143  TIP3  H2           10.0152679084       -6.5922381489       -8.5541633355  CLST         143          1.0000000000
       430       144  TIP3  OH2           3.2949142442       -2.8666852265        9.0870469772  CLST         144          1.0000000000
       431       144  TIP3  H1            2.5429813615       -2.4758829806        9.6062389949  CLST         144          1.0000000000
       432       144  TIP3  H2            3.1661405663       -2.2002395970        8.3469796418  CLST         144          1.0000000000
       433       145  TIP3  OH2         -10.2442570904       13.2943871946        3.1582585481  CLST         145          1.0000000000
       434       145  TIP3  H1          -10.6300470589       13.4306603037        2.2780255463  CLST         145          1.0000000000
       435       145  TIP3  H2           -9.8954433131       12.3882942345        3.1308244580  CLST         145          1.0000000000
       436       146  TIP3  OH2           9.1012299621        2.7057981814       -4.1063624098  CLST         146          1.0000000000
       437       146  TIP3  H1            8.9750105347        3.7145436646       -4.0927601049  CLST         146          1.0000000000
       438       146  TIP3  H2            8.4412851662        2.5640236902       -4.8276517962  CLST         146          1.0000000000
       439       147  TIP3  OH2         -11.0426904357       -0.2420681411       -4.1191456599  CLST         147          1.0000000000
       440       147  TIP3  H1          -10.1485266159       -0.6437462792       -4.2841449824  CLST         147          1.0000000000
       441       147  TIP3  H2          -11.3636985977       -0.4795923710       -5.0826759394  CLST         147          1.0000000000
       442       148  TIP3  OH2          -7.8533499449        1.3250989192        8.9985654349  CLST         148          1.0000000000
       443       148  TIP3  H1           -7.7775776797        1.1091260888        8.0265833348  CLST         148          1.0000000000
       444       148  TIP3  H2           -6.8457792286        1.3476995724        9.1058878011  CLST         148          1.0000000000
       445       149  TIP3  OH2           8.6156929690       -2.8634201090        0.9465977327  CLST         149          1.0000000000
       446       149  TIP3  H1            9.2026467997       -2.0884705106        0.9101227664  CLST         149          1.0000000000
       447       149  TIP3  H2            8.0273053250       -2.6500935640        1.7299586538  CLST         149          1.0000000000
       448       150  TIP3  OH2          -2.0773576746      -11.4991506038        8.5305091980  CLST         150          1.0000000000
       449       150  TIP3  H1           -2.9412070619      -11.7375145153        8.9649433297  CLST         150          1.0000000000
       450       150  TIP3  H2           -1.4117937931      -11.8793757731        9.1458190639  CLST         150          1.0000000000
       451       151  TIP3  OH2          -9.1275029996       -6.4479406878       -5.0200978691  CLST         151          1.0000000000
       452       151  TIP3  H1           -8.1626370775       -6.5650359700       -4.6785395974  CLST         151          1.0000000000
       453       151  TIP3  H2           -9.0181483361       -7.3339903748       -5.5252651399  CLST         151          1.0000000000
       454       152  TIP3  OH2           3.7250060083       -1.9838532047        5.0611985950  CLST         152          1.0000000000
       455       152  TIP3  H1            4.1047338454       -2.8838710215        5.2835911045  CLST         152          1.0000000000
       456       152  TIP3  H2            3.2675476661       -2.2113370068        4.2520326712  CLST         152          1.0000000000
       457       153  TIP3  OH2          -2.7078502386        4.8117998818      -14.1687982297  CLST         153          1.0000000000
       458       153  TIP3  H1           -1.9306197853        5.2681314294      -13.7544081794  CLST         153          1.0000000000
       459       153  TIP3  H2           -2.7511019796        4.1876255681      -13.4282475296  CLST         153          1.0000000000
       460       154  TIP3  OH2           4.5377363446       -6.8885810233        2.0805623329  CLST         154          1.0000000000
       461       154  TIP3  H1            5.3843952454       -6.4043665934        1.8581025169  CLST         154          1.0000000000
       462       154  TIP3  H2            3.8958851273       -6.4559181669        1.4904568093  CLST         154          1.0000000000
       463       155  TIP3  OH2           9.4712741199       -2.7610717396       10.3726368686  CLST         155          1.0000000000
       464       155  TIP3  H1            8.9397660491       -3.2348248876        9.6697969044  CLST         155          1.0000000000
       465       155  TIP3  H2            9.9269645388       -3.3658496968       10.7714644217  CLST         155          1.0000000000
       466       156  TIP3  OH2          -2.0496837803       11.2764436169       11.5362616756  CLST         156          1.0000000000
       467       156  TIP3  H1           -2.8769267387       11.7246520398       11.7539142743  CLST         156          1.0000000000
       468       156  TIP3  H2           -2.3747362239       10.3878976322       11.7973496012  CLST         156          1.0000000000
       469       157  TIP3  OH2           3.8740245760       -0.8100064336        7.4226968550  CLST         157          1.0000000000
       470       157  TIP3  H1            4.8236396615       -1.0048899307        7.6018661777  CLST         157          1.0000000000
       471       157  TIP3  H2            3.7757705213       -1.2392435562        6.5007143677  CLST         157          1.0000000000
       472       158  TIP3  OH2          10.5988467525        9.1489218426       13.3118360211  CLST         158          1.0000000000
       473       158  TIP3  H1            9.7852125893        8.6330406098       13.0764689544  CLST         158          1.0000000000
       474       158  TIP3  H2           10.2123407947        9.9645770070       12.9503461015  CLST         158          1.0000000000
       475       159  TIP3  OH2           0.5240783036      -12.0774908356        4.5018829130  CLST         159          1.0000000000
       476       159  TIP3  H1           -0.1400367815      -12.4352068713        5.1644478461  CLST         159          1.0000000000
       477       159  TIP3  H2            0.2474675175      -11.1239937343        4.7075605008  CLST         159          1.0000000000
       478       160  TIP3  OH2           7.4608040101       -3.6159491569        8.5939798219  CLST         160          1.0000000000
       479       160  TIP3  H1            6.9099508841       -3.7398911348        7.7350979736  CLST         160          1.0000000000
       480       160  TIP3  H2            7.0852628668       -2.7737106440        8.8037331144  CLST         160          1.0000000000
       481       161  TIP3  OH2          -2.5016637806       -2.4273259242        7.8527235128  CLST         161          1.0000000000
       482       161  TIP3  H1           -1.9356302557       -1.9309115800        8.4877903776  CLST         161          1.0000000000
       483       161  TIP3  H2           -3.3534957546       -2.3633253352        8.3395308190  CLST         161          1.0000000000
       484       162  TIP3  OH2          -0.8539422056        3.5395298340      -10.7013494378  CLST         162          1.0000000000
       485       162  TIP3  H1           -0.5456713739        4.2522465367      -11.2672042595  CLST         162          1.0000000000
       486       162  TIP3  H2           -0.7447190515        3.8028306506       -9.7771353004  CLST         162          1.0000000000
       487       163  TIP3  OH2          -9.9486435672        9.1539016892       11.1956623477  CLST         163          1.0000000000
       488       163  TIP3  H1          -10.6474144493        8.4723757877       11.3444793070  CLST         163          1.0000000000
       489       163  TIP3  H2          -10.2455316044        9.8513908332       11.8080833344  CLST         163          1.0000000000
       490       164  TIP3  OH2           4.0199451751      -10.3152464102       13.1171865678  CLST         164          1.0000000000
       491       164  TIP3  H1            4.5103127613       -9.4808885142       13.0239458293  CLST         164          1.0000000000
       492       164  TIP3  H2            4.7572060165      -10.8264645921       12.7025924479  CLST         164          1.0000000000
       493       165  TIP3  OH2         -12.1987077896       -5.5521504750        3.6562942620  CLST         165          1.0000000000
       494       165  TIP3  H1          -11.9702328413       -5.5848002433        4.6128093422  CLST         165          1.0000000000
       495       165  TIP3  H2          -13.1144401599       -5.5965877162        3.7736133079  CLST         165          1.0000000000
       496       166  TIP3  OH2          -1.6246941541       -6.3401420133      -10.4974919263  CLST         166          1.0000000000
       497       166  TIP3  H1           -0.6918168324       -6.6698451988      -10.3864181160  CLST         166          1.0000000000
       498       166  TIP3  H2           -2.1000626499       -7.0015069355      -10.0419319681  CLST         166          1.0000000000
       499       167  TIP3  OH2           8.0652718739       10.7377071467       -0.8599611690  CLST         167          1.0000000000
       500       167  TIP3  H1            8.5470784639       10.1084616632       -0.2361052518  CLST         167          1.0000000000
       501       167  TIP3  H2            8.5460700283       10.4778923020       -1.6736825939  CLST         167          1.0000000000
       502       168  TIP3  OH2          -0.7262471095      -13.4295533850        2.0585434334  CLST         168          1.0000000000
       503       168  TIP3  H1           -0.3040293403      -13.1732341182        2.9166928573  CLST         168          1.0000000000
       504       168  TIP3  H2            0.0093228615      -13.9210724137        1.6618951236  CLST         168          1.0000000000
       505       169  TIP3  OH2           5.1028840971        4.0810342553        3.3425909167  CLST         169          1.0000000000
       506       169  TIP3  H1            4.1239704616        3.8688977486        3.3499799123  CLST         169          1.0000000000
       507       169  TIP3  H2            5.1673422454        4.6992767364        2.5680556340  CLST         169          1.0000000000
       508       170  TIP3  OH2          -1.2152240021        4.2916014194        1.4451597745  CLST         170          1.0000000000
       509       170  TIP3  H1           -1.9221714338        4.9967821052        1.3236144447  CLST         170          1.0000000000
       510       170  TIP3  H2           -1.6598901776        3.4123369729        1.2634181105  CLST         170          1.0000000000
       511       171  TIP3  OH2          -2.9706803062        1.2651265129        7.2491224980  CLST         171          1.0000000000
       512       171  TIP3  H1           -2.6185634049        0.5375379681        6.6203507006  CLST         171          1.0000000000
       513       171  TIP3  H2           -2.0591486206        1.6778023091        7.4808150956  CLST         171          1.0000000000
       514       172  TIP3  OH2          -6.4251514721      -13.0815659492        7.9870530277  CLST         172          1.0000000000
       515       172  TIP3  H1           -6.6084509370      -14.0198242988        7.8354863416  CLST         172          1.0000000000
       516       172  TIP3  H2           -5.6865574420      -12.8624890725        7.2806931271  CLST         172          1.0000000000
       517       173  TIP3  OH2          10.3230688854      -12.5403845684        1.9566598944  CLST         173          1.0000000000
       518       173  TIP3  H1           10.5498006493      -12.5201077497        0.9448110272  CLST         173          1.0000000000
       519       173  TIP3  H2            9.5366075817      -11.9701009386        1.8562000885  CLST         173          1.0000000000
       520       174  TIP3  OH2           0.0661754844        5.5267975784        9.7731326398  CLST         174          1.0000000000
       521       174  TIP3  H1            0.0132730307        4.5774398705       10.1309336350  CLST         174          1.0000000000
       522       174  TIP3  H2           -0.8241700861        5.8858326795        9.9947925016  CLST         174          1.0000000000
       523       175  TIP3  OH2          -5.7184247643       10.3196984746       -3.4901072811  CLST         175          1.0000000000
       524       175  TIP3  H1           -5.3348350356        9.7260118926       -4.1804184276  CLST         175          1.0000000000
       525       175  TIP3  H2           -6.6062098901       10.3552292689       -3.9867624109  CLST         175          1.0000000000
       526       176  TIP3  OH2           6.6899396977        9.2197842724       -7.6235439809  CLST         176          1.0000000000
       527       176  TIP3  H1            7.0407755810       10.0468293513       -8.0078521459  CLST         176          1.0000000000
       528       176  TIP3  H2            5.9871917962        9.6070241753       -7.0783045693  CLST         176          1.0000000000
       529       177  TIP3  OH2          -3.7871473684      -11.4109819154       -1.6144430392  CLST         177          1.0000000000
       530       177  TIP3  H1           -3.2380115960      -12.1189999091       -1.2616975113  CLST         177          1.0000000000
       531       177  TIP3  H2           -4.4694840339      -11.2728467826       -0.8937299673  CLST         177          1.0000000000
       532       178  TIP3  OH2          10.8843637128       -8.9427061473      -11.5308349703  CLST         178          1.0000000000
       533       178  TIP3  H1           11.2160720750       -8.7669403519      -10.6378259053  CLST         178          1.0000000000
       534       178  TIP3  H2           10.8526758192       -7.9480212410      -11.7262926964  CLST         178          1.0000000000
       535       179  TIP3  OH2           6.3494883610       -0.8947920971        8.3392291256  CLST         179          1.0000000000
       536       179  TIP3  H1            5.9297244708       -0.2649770587        8.9909251843  CLST         179          1.0000000000
       537       179  TIP3  H2            7.1058505467       -0.3276052580        8.1211160190  CLST         179          1.0000000000
       538       180  TIP3  OH2          -7.6221520263        8.1683038766        5.9346370879  CLST         180          1.0000000000
       539       180  TIP3  H1           -7.3628721373        7.7107028098        6.7888164914  CLST         180          1.0000000000
       540       180  TIP3  H2           -8.5741393943        8.1940103327        6.1515210179  CLST         180          1.0000000000
       541       181  TIP3  OH2           5.8158978379      -13.0200792258       -0.3126616738  CLST         181          1.0000000000
       542       181  TIP3  H1            6.4723088996      -12.6128505378       -0.8261182058  CLST         181          1.0000000000
       543       181  TIP3  H2            6.2071784377      -13.1008323318        0.5836299712  CLST         181          1.0000000000
       544       182  TIP3  OH2          -1.7615219687       10.4307208209      -10.3791051557  CLST         182          1.0000000000
       545       182  TIP3  H1           -0.9908672421       10.7536562934       -9.8620527897  CLST         182          1.0000000000
       546       182  TIP3  H2           -2.5150481551       10.3790835075       -9.7823707670  CLST         182          1.0000000000
       547       183  TIP3  OH2          -5.3967591052        3.6567504279      -12.3949568583  CLST         183          1.0000000000
       548       183  TIP3  H1           -5.1980300978        3.5689517286      -11.4119381955  CLST         183          1.0000000000
       549       183  TIP3  H2           -6.3050849887        3.2147330368      -12.3409385996  CLST         183          1.0000000000
       550       184  TIP3  OH2           3.0631142871        8.2757242318       -2.4235105618  CLST         184          1.0000000000
       551       184  TIP3  H1            3.1735148420        7.7404704019       -1.6279358452  CLST         184          1.0000000000
       552       184  TIP3  H2            2.1320835673        7.9746140714       -2.6073001029  CLST         184          1.0000000000
       553       185  TIP3  OH2           7.4279338605        4.6959673666       12.0348957691  CLST         185          1.0000000000
       554       185  TIP3  H1            7.6569043708        3.6844060514       12.1807297417  CLST         185          1.0000000000
       555       185  TIP3  H2            7.0084140059        4.9474683725       12.8917311481  CLST         185          1.0000000000
       556       186  TIP3  OH2           3.8912251227        5.8595055219       -5.2360634910  CLST         186          1.0000000000
       557       186  TIP3  H1            4.1948882803        6.7998444115       -5.3784497212  CLST         186          1.0000000000
       558       186  TIP3  H2            3.9290184109        5.5593323100       -6.1766345898  CLST         186          1.0000000000
       559       187  TIP3  OH2           3.8700886490        1.7533353383       -5.4460150043  CLST         187          1.0000000000
       560       187  TIP3  H1            4.2006839736        1.6594009465       -4.5510995864  CLST         187          1.0000000000
       561       187  TIP3  H2            3.6449030817        0.7880259790       -5.5363037553  CLST         187          1.0000000000
       562       188  TIP3  OH2          -4.5862174099       -1.5327847052        4.8251365173  CLST         188          1.0000000000
       563       188  TIP3  H1           -4.8908078916       -0.6854418776        4.4048819720  CLST         188          1.0000000000
       564       188  TIP3  H2           -4.8593100376       -1.3427838936        5.7594893456  CLST         188          1.0000000000
       565       189  TIP3  OH2          -5.0304962514        3.5201480977      -15.1067836758  CLST         189          1.0000000000
       566       189  TIP3  H1           -5.0724634147        3.6924866696      -14.1533094136  CLST         189          1.0000000000
       567       189  TIP3  H2           -4.1915233083        3.9178690266      -15.3610630037  CLST         189          1.0000000000
       568       190  TIP3  OH2           7.1297597278       -5.7216177171        5.2103970076  CLST         190          1.0000000000
       569       190  TIP3  H1            7.1856866539       -6.0688574537        4.2804125496  CLST         190          1.0000000000
       570       190  TIP3  H2            8.0532229889       -5.4202261164        5.3447193439  CLST         190          1.0000000000
       571       191  TIP3  OH2         -10.9284409066       -4.8826612436       -6.5358677523  CLST         191          1.0000000000
       572       191  TIP3  H1          -10.2317607020       -4.5426956018       -7.1332114458  CLST         191          1.0000000000
       573       191  TIP3  H2          -10.4531382540       -5.7090000463       -6.2757186971  CLST         191          1.0000000000
       574       192  TIP3  OH2           8.9554316257       14.2711395145        1.8103656607  CLST         192          1.0000000000
       575       192  TIP3  H1            8.5513366629       14.5301199036        2.6391529214  CLST         192          1.0000000000
       576       192  TIP3  H2            9.2756842286       15.1338439499        1.5430208476  CLST         192          1.0000000000
       577       193  TIP3  OH2           6.0017247155      -12.1467624652       11.5962608601  CLST         193          1.0000000000
       578       193  TIP3  H1            6.5688981896      -12.9093347045       11.6827334248  CLST         193          1.0000000000
       579       193  TIP3  H2            6.4508702037      -11.6096098730       10.9230492114  CLST         193          1.0000000000
       580       194  TIP3  OH2          -6.2764363347       -4.4769164406       11.0156708507  CLST         194          1.0000000000
       581       194  TIP3  H1           -6.8011601299       -4.6862036988       11.8216594367  CLST         194          1.0000000000
       582       194  TIP3  H2           -6.9893033815       -4.1804148940       10.4124852194  CLST         194          1.0000000000
       583       195  TIP3  OH2          -7.4719392090        9.1329991401       10.2783527221  CLST         195          1.0000000000
       584       195  TIP3  H1           -8.3993145660        8.8865919294       10.6211228191  CLST         195          1.0000000000
       585       195  TIP3  H2           -7.6339401277        8.6780243315        9.4126658261  CLST         195          1.0000000000
       586       196  TIP3  OH2           5.9557636683      -12.3122030712       -6.0025209992  CLST         196          1.0000000000
       587       196  TIP3  H1            6.2269592250      -11.5428322605       -6.5891319990  CLST         196          1.0000000000
       588       196  TIP3  H2            5.0949519675      -11.8914993817       -5.7591356848  CLST         196          1.0000000000
       589       197  TIP3  OH2           2.1322734619       -9.1269297846       -2.7469135422  CLST         197          1.0000000000
       590       197  TIP3  H1            1.7320624216       -8.2528086512       -2.4387457830  CLST         197          1.0000000000
       591       197  TIP3  H2            3.0243540007       -8.8336422362       -2.4924011936  CLST         197          1.0000000000
       592       198  TIP3  OH2          10.9339379022        1.8639304817        4.8861277275  CLST         198          1.0000000000
       593       198  TIP3  H1           10.0199496694        1.7194915271        4.5826497147  CLST         198          1.0000000000
       594       198  TIP3  H2           10.9989262399        2.7564273370        4.4964091280  CLST         198          1.0000000000
       595       199  TIP3  OH2          -0.0979453776        8.4163629245       -5.8654110263  CLST         199          1.0000000000
       596       199  TIP3  H1           -0.6952706933        8.8471554394       -5.1973318944  CLST         199          1.0000000000
       597       199  TIP3  H2           -0.3056026942        7.4643195928       -5.7212679777  CLST         199          1.0000000000
       598       200  TIP3  OH2          -7.6228741098       11.8116913003       10.9742530126  CLST         200          1.0000000000
       599       200  TIP3  H1           -7.6113637849       10.8182389494       10.8548692734  CLST         200          1.0000000000
       600       200  TIP3  H2           -7.4353657560       12.0554800630       10.0338479111  CLST         200          1.0000000000
       601       201  TIP3  OH2           4.5588102884        0.9958695446       -0.2347950323  CLST         201          1.0000000000
       602       201  TIP3  H1            3.9150787047        1.4418219685        0.3454686075  CLST         201          1.0000000000
       603       201  TIP3  H2            5.2561043407        0.7562507484        0.4095188671  CLST         201          1.0000000000
       604       202  TIP3  OH2          -2.0700262674       -4.3762663905      -12.4738425726  CLST         202          1.0000000000
       605       202  TIP3  H1           -1.7535677759       -4.9595268918      -11.7554053746  CLST         202          1.0000000000
       606       202  TIP3  H2           -2.5172965168       -3.6755707784      -11.9745583770  CLST         202          1.0000000000
       607       203  TIP3  OH2          -0.6272263790       11.4011601928        7.5967037411  CLST         203          1.0000000000
       608       203  TIP3  H1            0.1358654092       10.9120117136        7.9023381920  CLST         203          1.0000000000
       609       203  TIP3  H2           -1.3161698586       10.9725990354        8.1386757301  CLST         203          1.0000000000
       610       204  TIP3  OH2          -5.3573481763        6.2787110004      -13.2405358813  CLST         204          1.0000000000
       611       204  TIP3  H1           -4.5968620721        6.1172384138      -13.8025444637  CLST         204          1.0000000000
       612       204  TIP3  H2           -5.5824298425        5.3567530651      -12.9738005490  CLST         204          1.0000000000
       613       205  TIP3  OH2          -2.4061005505        7.1708115499       -2.6113486051  CLST         205          1.0000000000
       614       205  TIP3  H1           -2.4580492891        7.7864525346       -3.4140538589  CLST         205          1.0000000000
       615       205  TIP3  H2           -1.3822231131        7.1779368257       -2.5702066720  CLST         205          1.0000000000
       616       206  TIP3  OH2           5.1409403048      -11.0192784223       -9.8214942022  CLST         206          1.0000000000
       617       206  TIP3  H1            5.1983952883      -11.9284206127       -9.4248010349  CLST         206          1.0000000000
       618       206  TIP3  H2            5.6983847243      -10.5743803213       -9.1097988856  CLST         206          1.0000000000
       619       207  TIP3  OH2          12.9526297646       10.1391821514       12.2612314314  CLST         207          1.0000000000
       620       207  TIP3  H1           12.0999427817        9.8994006006       12.8270081018  CLST         207          1.0000000000
       621       207  TIP3  H2           13.6092992921        9.9109321730       12.9107725912  CLST         207          1.0000000000
       622       208  TIP3  OH2         -11.5099077702        2.2574115101        6.9276506015  CLST         208          1.0000000000
       623       208  TIP3  H1          -11.1965016194        2.1861542420        7.8655046573  CLST         208          1.0000000000
       624       208  TIP3  H2          -11.2532310447        3.1645502147        6.7146945226  CLST         208          1.0000000000
       625       209  TIP3  OH2           4.3715603366       -9.2595805636        7.4015824429  CLST         209          1.0000000000
       626       209  TIP3  H1            3.9827418811       -9.6492828375        6.5098413725  CLST         209          1.0000000000
       627       209  TIP3  H2            3.6003861769       -8.5852860434        7.4117396855  CLST         209          1.0000000000
       628       210  TIP3  OH2          12.1204403329      -11.1306476436        5.2906072143  CLST         210          1.0000000000
       629       210  TIP3  H1           12.4161736083      -11.0578644663        4.3601848081  CLST         210          1.0000000000
       630       210  TIP3  H2           12.3010849794      -10.3216695421        5.6851876503  CLST         210          1.0000000000
       631       211  TIP3  OH2          -0.3621065614       -9.2463624698       12.1622732673  CLST         211          1.0000000000
       632       211  TIP3  H1            0.1258103501       -9.7242724094       12.8786020119  CLST         211          1.0000000000
       633       211  TIP3  H2           -1.0429580041       -9.9988769013       12.0974184003  CLST         211          1.0000000000
       634       212  TIP3  OH2         -12.3941077630        3.5708511480       -2.5096497342  CLST         212          1.0000000000
       635       212  TIP3  H1          -11.7448149662        4.0763107234       -3.0786937604  CLST         212          1.0000000000
       636       212  TIP3  H2          -11.9455232087        2.7173220265       -2.4890281590  CLST         212          1.0000000000
       637       213  TIP3  OH2          -9.3544607452      -11.5595151110      -11.5910011783  CLST         213          1.0000000000
       638       213  TIP3  H1           -9.8822157264      -11.8289777177      -12.1607198056  CLST         213          1.0000000000
       639       213  TIP3  H2           -8.4097762180      -11.2228520341      -11.9433659702  CLST         213          1.0000000000
       640       214  TIP3  OH2          -6.4714031443        2.2433860896       -5.5345936049  CLST         214          1.0000000000
       641       214  TIP3  H1           -6.2178003331        1.4165993229       -5.0399217917  CLST         214          1.0000000000
       642       214  TIP3  H2           -6.9467548135        2.7126948381       -4.8292593923  CLST         214          1.0000000000
       643       215  TIP3  OH2         -11.7613378600      -12.8039407180        5.5023489319  CLST         215          1.0000000000
       644       215  TIP3  H1          -10.8977205312      -12.3816620413        5.4051044301  CLST         215          1.0000000000
       645       215  TIP3  H2          -11.9543154607      -12.9090483279        4.5304571312  CLST         215          1.0000000000
       646       216  TIP3  OH2         -11.6868606842       -2.3733481077        8.0693993188  CLST         216          1.0000000000
       647       216  TIP3  H1          -10.7297480796       -2.1046547886        8.0738980999  CLST         216          1.0000000000
       648       216  TIP3  H2          -11.5919066824       -3.2342100241        8.5636825022  CLST         216          1.0000000000
       649       217  TIP3  OH2           7.5526365187       -0.3765337408       -1.6058724817  CLST         217          1.0000000000
       650       217  TIP3  H1            8.0603171924       -1.1934763685       -1.7025977307  CLST         217          1.0000000000
       651       217  TIP3  H2            7.0019292500       -0.5564795940       -0.8044073555  CLST         217          1.0000000000
       652       218  TIP3  OH2          -8.2226707136       -4.0158035676        8.9125854027  CLST         218          1.0000000000
       653       218  TIP3  H1           -8.4547197697       -3.0757789710        8.7035837648  CLST         218          1.0000000000
       654       218  TIP3  H2           -7.6001492872       -4.2963534122        8.1815664886  CLST         218          1.0000000000
       655       219  TIP3  OH2         -12.4739413718       -4.5527325173       -2.5839785849  CLST         219          1.0000000000
       656       219  TIP3  H1          -12.6403314221       -3.6068667133       -2.3523664631  CLST         219          1.0000000000
       657       219  TIP3  H2          -12.8634634659       -4.5055192301       -3.5058956151  CLST         219          1.0000000000
       658       220  TIP3  OH2           6.3725157758        6.8073558221        7.7614214430  CLST         220          1.0000000000
       659       220  TIP3  H1            5.9733361695        6.4420606117        6.8737614541  CLST         220          1.0000000000
       660       220  TIP3  H2            5.4978454732        6.5746247365        8.2058638326  CLST         220          1.0000000000
       661       221  TIP3  OH2         -10.4242865015       -7.1802904324       10.3534902765  CLST         221          1.0000000000
       662       221  TIP3  H1           -9.5602190689       -7.4032079354       10.0452814973  CLST         221          1.0000000000
       663       221  TIP3  H2          -10.7824133936       -8.0452354597       10.0564627497  CLST         221          1.0000000000
       664       222  TIP3  OH2          -6.9152619809       -0.9222833700      -13.7424608818  CLST         222          1.0000000000
       665       222  TIP3  H1           -6.4065762922       -1.8082330839      -13.6163835222  CLST         222          1.0000000000
       666       222  TIP3  H2           -7.7574996987       -1.1430351211      -13.3001755008  CLST         222          1.0000000000
       667       223  TIP3  OH2           2.7362273411      -10.8487134026      -11.7115973816  CLST         223          1.0000000000
       668       223  TIP3  H1            2.2481683972      -11.7032895170      -11.5494422634  CLST         223          1.0000000000
       669       223  TIP3  H2            3.6334662153      -11.0782056300      -11.3588300164  CLST         223          1.0000000000
       670       224  TIP3  OH2           7.5635935369        4.7783748082        0.7726034539  CLST         224          1.0000000000
       671       224  TIP3  H1            8.5368315736        4.9377289540        0.9176821158  CLST         224          1.0000000000
       672       224  TIP3  H2            7.6176087865        4.5891774583       -0.2201994418  CLST         224          1.0000000000
       673       225  TIP3  OH2          -0.3335628649        4.6102436150       -1.0757259932  CLST         225          1.0000000000
       674       225  TIP3  H1           -0.9199335004        4.3983525667       -0.3216517199  CLST         225          1.0000000000
       675       225  TIP3  H2            0.0363281013        3.6996082067       -1.2154528274  CLST         225          1.0000000000
       676       226  TIP3  OH2          -5.6979466445       -4.4324513613        7.5154292609  CLST         226          1.0000000000
       677       226  TIP3  H1           -5.8510561390       -5.4333685485        7.7474821075  CLST         226          1.0000000000
       678       226  TIP3  H2           -5.7791336618       -4.5167643646        6.5419291207  CLST         226          1.0000000000
       679       227  TIP3  OH2          11.6328331504       -4.0310768745       -9.7767042230  CLST         227          1.0000000000
       680       227  TIP3  H1           11.9598647487       -3.7574949420       -8.8878846912  CLST         227          1.0000000000
       681       227  TIP3  H2           11.3403564441       -3.1833434690      -10.1150772544  CLST         227          1.0000000000
       682       228  TIP3  OH2           3.3690502917       12.3897570049        3.2042112942  CLST         228          1.0000000000
       683       228  TIP3  H1            2.6910802585       11.9135308977        3.8365834497  CLST         228          1.0000000000
       684       228  TIP3  H2            2.6889667434       12.6746348443        2.6564267108  CLST         228          1.0000000000
       685       229  TIP3  OH2         -11.6350486617      -13.0143239877        2.8431829633  CLST         229          1.0000000000
       686       229  TIP3  H1          -11.3836938543      -13.7313038732        2.4254655455  CLST         229          1.0000000000
       687       229  TIP3  H2          -11.1448106077      -12.2385931666        2.3236005018  CLST         229          1.0000000000
       688       230  TIP3  OH2          12.3834245804        6.3639212308       -3.3928632943  CLST         230          1.0000000000
       689       230  TIP3  H1           13.3380325792        6.3632707420       -3.6686815875  CLST         230          1.0000000000
       690       230  TIP3  H2           12.2413481572        5.4428198670       -3.7686655481  CLST         230          1.0000000000
       691       231  TIP3  OH2           7.1779029076        3.3948361533        4.9469856803  CLST         231          1.0000000000
       692       231  TIP3  H1            7.3095926949        4.3643792290        4.9516492224  CLST         231          1.0000000000
       693       231  TIP3  H2            6.2120607184        3.4342482791        4.6593837878  CLST         231          1.0000000000
       694       232  TIP3  OH2         -10.2411080037        9.0238646746        7.4907490881  CLST         232          1.0000000000
       695       232  TIP3  H1          -10.6208559429        9.5525950848        8.2767490189  CLST         232          1.0000000000
       696       232  TIP3  H2          -10.2542357340        8.1557658635        7.9647321443  CLST         232          1.0000000000
       697       233  TIP3  OH2           3.5954254105       -5.1700656577        8.0977986968  CLST         233          1.0000000000
       698       233  TIP3  H1            4.3118399204       -5.5265511040        8.6945898450  CLST         233          1.0000000000
       699       233  TIP3  H2            3.3743221788       -4.3225431146        8.6111595244  CLST         233          1.0000000000
       700       234  TIP3  OH2          -3.5522082836        8.5451791066       -0.4724399289  CLST         234          1.0000000000
       701       234  TIP3  H1           -3.2961505949        8.0092290677       -1.3082094403  CLST         234          1.0000000000
       702       234  TIP3  H2           -3.5979427495        9.3939766292       -0.9284267765  CLST         234          1.0000000000
       703       235  TIP3  OH2          -1.9161414695       -4.0510554925       -9.0195003904  CLST         235          1.0000000000
       704       235  TIP3  H1           -1.8303695071       -4.9339907886       -9.4148948153  CLST         235          1.0000000000
       705       235  TIP3  H2           -1.0083627402       -3.7074361428       -9.2373893498  CLST         235          1.0000000000
       706       236  TIP3  OH2          -0.3947645304      -13.6985403495       -2.9734530819  CLST         236          1.0000000000
       707       236  TIP3  H1            0.2076122223      -12.9248266769       -2.9096564346  CLST         236          1.0000000000
       708       236  TIP3  H2           -0.8459814314      -13.3896692184       -2.1124057379  CLST         236          1.0000000000
       709       237  TIP3  OH2          -3.5824649381       -5.1773086728       10.9960998066  CLST         237          1.0000000000
       710       237  TIP3  H1           -4.5472758638       -5.1367966282       10.8807846906  CLST         237          1.0000000000
       711       237  TIP3  H2           -3.3320536792       -5.9683505791       10.4902956042  CLST         237          1.0000000000
       712       238  TIP3  OH2           0.6337879160        4.6719993239        7.3122619668  CLST         238          1.0000000000
       713       238  TIP3  H1           -0.0554940661        5.2584061601        6.8367822645  CLST         238          1.0000000000
       714       238  TIP3  H2            0.5989489841        5.1003228456        8.2051689512  CLST         238          1.0000000000
       715       239  TIP3  OH2         -13.9751237542        6.0099367016        3.4913077719  CLST         239          1.0000000000
       716       239  TIP3  H1          -13.9724970852        6.5289696946        2.6892307327  CLST         239          1.0000000000
       717       239  TIP3  H2          -13.3321941176        5.3311684259        3.2695758384  CLST         239          1.0000000000
       718       240  TIP3  OH2         -14.0049784869        8.8161702122       -0.2071129814  CLST         240          1.0000000000
       719       240  TIP3  H1          -14.5065271550        9.0630467291        0.5169343146  CLST         240          1.0000000000
       720       240  TIP3  H2          -13.8679251346        7.8398586021        0.0325460963  CLST         240          1.0000000000
       721       241  TIP3  OH2          -7.7473547551       -7.6453828058       -8.6510421772  CLST         241          1.0000000000
       722       241  TIP3  H1           -8.1439123627       -7.9449375721       -7.8093714496  CLST         241          1.0000000000
       723       241  TIP3  H2           -7.5697409951       -6.6968570276       -8.4068144971  CLST         241          1.0000000000
       724       242  TIP3  OH2           6.0970721272       -5.8127206404        9.6051944922  CLST         242          1.0000000000
       725       242  TIP3  H1            6.7682581275       -5.0732832945        9.4748694605  CLST         242          1.0000000000
       726       242  TIP3  H2            6.7852298366       -6.5296917397        9.4138142149  CLST         242          1.0000000000
       727       243  TIP3  OH2          -6.6989751257       -7.1587898235       -4.2750187556  CLST         243          1.0000000000
       728       243  TIP3  H1           -6.2527523508       -8.0427159446       -4.5317703651  CLST         243          1.0000000000
       729       243  TIP3  H2           -6.7786503672       -7.4595604825       -3.3514311031  CLST         243          1.0000000000
       730       244  TIP3  OH2           4.8429916832        5.7500805784        5.4443747183  CLST         244          1.0000000000
       731       244  TIP3  H1            5.3044089443        5.4074312850        4.6466475790  CLST         244          1.0000000000
       732       244  TIP3  H2            4.0410719874        5.1685185615        5.4759553366  CLST         244          1.0000000000
       733       245  TIP3  OH2          -6.9280124490        3.7037254011       -7.6587403026  CLST         245          1.0000000000
       734       245  TIP3  H1           -6.8522319230        3.0938915205       -6.8591017001  CLST         245          1.0000000000
       735       245  TIP3  H2           -7.1666316561        4.5276984081       -7.2157320446  CLST         245          1.0000000000
       736       246  TIP3  OH2           2.0522920305       -6.5985236794       -1.8406761519  CLST         246          1.0000000000
       737       246  TIP3  H1            2.0952099386       -5.9574016290       -2.6265999609  CLST         246          1.0000000000
       738       246  TIP3  H2            3.0044497674       -6.7757329515       -1.6863505536  CLST         246          1.0000000000
       739       247  TIP3  OH2           5.9492086906        7.9842439377        0.5397189511  CLST         247          1.0000000000
       740       247  TIP3  H1            6.2616421024        7.6407874509       -0.3334689087  CLST         247          1.0000000000
       741       247  TIP3  H2            5.8933370264        8.9285524482        0.3664155854  CLST         247          1.0000000000
       742       248  TIP3  OH2          -2.3301009089        8.3687006070      -11.9198809564  CLST         248          1.0000000000
       743       248  TIP3  H1           -2.5774851985        8.9629302556      -12.6360472811  CLST         248          1.0000000000
       744       248  TIP3  H2           -1.8610607675        9.0401746640      -11.3113195823  CLST         248          1.0000000000
       745       249  TIP3  OH2           8.9032874990        4.6701097226       -7.8001160751  CLST         249          1.0000000000
       746       249  TIP3  H1            8.4540692936        5.3710479868       -7.2833726755  CLST         249          1.0000000000
       747       249  TIP3  H2            8.7642701772        3.8943558844       -7.2450662847  CLST         249          1.0000000000
       748       250  TIP3  OH2          -7.5210366838        9.8360552145       -5.4329296877  CLST         250          1.0000000000
       749       250  TIP3  H1           -7.9840150121        9.0853681462       -5.8182557946  CLST         250          1.0000000000
       750       250  TIP3  H2           -7.7930565209       10.5938494729       -5.9440830648  CLST         250          1.0000000000
       751       251  TIP3  OH2          -3.4976655348       12.3674812967        2.9967922941  CLST         251          1.0000000000
       752       251  TIP3  H1           -2.9439568931       12.9895530425        2.5516772562  CLST         251          1.0000000000
       753       251  TIP3  H2           -3.0070225605       12.3080565691        3.8451888633  CLST         251          1.0000000000
       754       252  TIP3  OH2           5.9425192090        5.3816916059       14.4807216276  CLST         252          1.0000000000
       755       252  TIP3  H1            5.8122217672        6.3723980499       14.4851112599  CLST         252          1.0000000000
       756       252  TIP3  H2            5.7062638644        5.1561467818       15.3059907746  CLST         252          1.0000000000
       757       253  TIP3  OH2           6.1140861426       13.7533234179        3.1338111165  CLST         253          1.0000000000
       758       253  TIP3  H1            5.1842570290       13.8117097879        3.3494558009  CLST         253          1.0000000000
       759       253  TIP3  H2            6.0768731398       13.4872576646        2.1890026210  CLST         253          1.0000000000
       760       254  TIP3  OH2          -4.1996244301        8.2130407876        3.1034785466  CLST         254          1.0000000000
       761       254  TIP3  H1           -4.5175784995        9.1451229709        2.9177673389  CLST         254          1.0000000000
       762       254  TIP3  H2           -5.1066955994        7.8032565882        3.1615459244  CLST         254          1.0000000000
       763       255  TIP3  OH2          -7.1052102343       10.4702722413        4.3079268561  CLST         255          1.0000000000
       764       255  TIP3  H1           -8.0492000825       10.6554468989        4.3080897814  CLST         255          1.0000000000
       765       255  TIP3  H2           -7.2077519548        9.6673259562        4.8774566607  CLST         255          1.0000000000
       766       256  TIP3  OH2          11.4505711185        3.7850384039       -1.3109524695  CLST         256          1.0000000000
       767       256  TIP3  H1           11.6991219934        3.0690750010       -1.9609935108  CLST         256          1.0000000000
       768       256  TIP3  H2           11.1440267420        3.2685505549       -0.5581483029  CLST         256          1.0000000000
       769       257  TIP3  OH2          -8.5509642982       -1.2728896328       -4.8941973023  CLST         257          1.0000000000
       770       257  TIP3  H1           -7.6831394163       -0.9825955672       -4.5487809449  CLST         257          1.0000000000
       771       257  TIP3  H2           -8.3707769581       -1.1655173875       -5.8325485949  CLST         257          1.0000000000
       772       258  TIP3  OH2          -5.2956894560       10.1120775295        7.7894375290  CLST         258          1.0000000000
       773       258  TIP3  H1           -5.2522868893       10.8928547235        7.1768204612  CLST         258          1.0000000000
       774       258  TIP3  H2           -5.8253956192       10.5122042830        8.4756836940  CLST         258          1.0000000000
       775       259  TIP3  OH2          10.0757886824        6.1891644031        0.9314029689  CLST         259          1.0000000000
       776       259  TIP3  H1           10.8477749219        6.8252008841        0.9992647758  CLST         259          1.0000000000
       777       259  TIP3  H2            9.9267820989        6.1755112189        1.8747154349  CLST         259          1.0000000000
       778       260  TIP3  OH2          -4.7875345167        7.7922904093        8.8741177941  CLST         260          1.0000000000
       779       260  TIP3  H1           -5.1200119481        8.5721913155        8.3374610106  CLST         260          1.0000000000
       780       260  TIP3  H2           -5.6396204245        7.3091722586        9.0063810618  CLST         260          1.0000000000
       781       261  TIP3  OH2           0.8109348703       -4.7917122055       12.2692295848  CLST         261          1.0000000000
       782       261  TIP3  H1            0.2951269169       -5.6644108486       12.2218258380  CLST         261          1.0000000000
       783       261  TIP3  H2            1.5231826616       -5.0402112280       12.8614836741  CLST         261          1.0000000000
       784       262  TIP3  OH2         -10.9867022706        4.8101456737        6.0127851889  CLST         262          1.0000000000
       785       262  TIP3  H1          -10.3404217383        4.5546650802        5.2629605208  CLST         262          1.0000000000
       786       262  TIP3  H2          -11.8013936092        5.0890513036        5.5101657306  CLST         262          1.0000000000
       787       263  TIP3  OH2           1.6983584842        0.8952147444        6.6200910245  CLST         263          1.0000000000
       788       263  TIP3  H1            2.2458530990        1.6412847970        6.2355965709  CLST         263          1.0000000000
       789       263  TIP3  H2            2.4053092018        0.4386445916        7.1573053402  CLST         263          1.0000000000
       790       264  TIP3  OH2           5.2422191314       -4.3345979787       -9.6456842564  CLST         264          1.0000000000
       791       264  TIP3  H1            5.0210115665       -5.2799851296       -9.8247751824  CLST         264          1.0000000000
       792       264  TIP3  H2            4.4456845064       -3.9054862469      -10.0556252409  CLST         264          1.0000000000
       793       265  TIP3  OH2           7.5911909752        4.8013281274      -10.2527450558  CLST         265          1.0000000000
       794       265  TIP3  H1            7.7917455333        5.7180440358      -10.6732048251  CLST         265          1.0000000000
       795       265  TIP3  H2            8.2416637439        4.8312897073       -9.4474669343  CLST         265          1.0000000000
       796       266  TIP3  OH2          -8.0385538032       -8.8444415535        0.0838305255  CLST         266          1.0000000000
       797       266  TIP3  H1           -7.9076719472       -9.0915299432        1.0230008075  CLST         266          1.0000000000
       798       266  TIP3  H2           -8.3867251059       -7.9591544598        0.1827858966  CLST         266          1.0000000000
       799       267  TIP3  OH2           1.2676850137        2.5771328816       -5.0487881993  CLST         267          1.0000000000
       800       267  TIP3  H1            1.5258939386        3.3436414248       -4.4690961842  CLST         267          1.0000000000
       801       267  TIP3  H2            2.0444180759        1.9989967635       -4.8612937607  CLST         267          1.0000000000
       802       268  TIP3  OH2           5.1504344026       -4.5353383256       -7.0146023048  CLST         268          1.0000000000
       803       268  TIP3  H1            5.2080829931       -4.3145810860       -7.9976683171  CLST         268          1.0000000000
       804       268  TIP3  H2            4.8010262813       -5.4249748553       -7.0048510045  CLST         268          1.0000000000
       805       269  TIP3  OH2           5.5269349531       10.8001354883       -0.2272604680  CLST         269          1.0000000000
       806       269  TIP3  H1            6.4857548000       10.7568863637       -0.5806786046  CLST         269          1.0000000000
       807       269  TIP3  H2            5.6728937602       11.7501243058        0.0577511610  CLST         269          1.0000000000
       808       270  TIP3  OH2           1.1673436051        9.3784420675       -8.0125959029  CLST         270          1.0000000000
       809       270  TIP3  H1            1.2788749866        8.5485734648       -8.5076880109  CLST         270          1.0000000000
       810       270  TIP3  H2            0.6056783726        8.9439665389       -7.1911105593  CLST         270          1.0000000000
       811       271  TIP3  OH2          -6.5586277225       -9.0184051320       -2.2360080788  CLST         271          1.0000000000
       812       271  TIP3  H1           -5.7702822928       -9.2040147327       -1.6963665114  CLST         271          1.0000000000
       813       271  TIP3  H2           -7.1875912683       -8.9451606444       -1.4367460318  CLST         271          1.0000000000
       814       272  TIP3  OH2           9.3852707676       -8.2784957052        5.8324040944  CLST         272          1.0000000000
       815       272  TIP3  H1            8.4330798314       -8.2117451003        5.9480754148  CLST         272          1.0000000000
       816       272  TIP3  H2            9.5452782697       -7.6759788037        5.0358840670  CLST         272          1.0000000000
       817       273  TIP3  OH2         -13.9312740848        9.4402299915        3.2046272779  CLST         273          1.0000000000
       818       273  TIP3  H1          -14.4715767070        9.8143451764        3.9727653816  CLST         273          1.0000000000
       819       273  TIP3  H2          -13.5063878286        8.8179743537        3.8437712686  CLST         273          1.0000000000
       820       274  TIP3  OH2           4.0551169954       13.0054231680       -4.1777497202  CLST         274          1.0000000000
       821       274  TIP3  H1            3.3294045488       12.7145446229       -2.8958297133  CLST         274          1.0000000000
       822       274  TIP3  H2            4.1294732392       13.6216042545       -3.6346224881  CLST         274          1.0000000000
       823       275  TIP3  OH2           8.7353405548      -11.1238591353        5.8797206245  CLST         275          1.0000000000
       824       275  TIP3  H1            9.1106818407      -10.2414019698        6.0725437037  CLST         275          1.0000000000
       825       275  TIP3  H2            9.5088962897      -11.7260224693        5.7195937250  CLST         275          1.0000000000
       826       276  TIP3  OH2          -0.1790306114       -5.8992267436        1.3708271489  CLST         276          1.0000000000
       827       276  TIP3  H1           -0.7616658095       -6.2754085241        0.7126938815  CLST         276          1.0000000000
       828       276  TIP3  H2           -0.7429426598       -5.1315062623        1.7881395990  CLST         276          1.0000000000
       829       277  TIP3  OH2           6.5868814539        6.3528469945       -6.9532381070  CLST         277          1.0000000000
       830       277  TIP3  H1            5.9398874105        5.7337476530       -7.3807115016  CLST         277          1.0000000000
       831       277  TIP3  H2            6.5332470208        7.1374500751       -7.5261311605  CLST         277          1.0000000000
       832       278  TIP3  OH2          -0.8115062438       -7.5450575600        3.4673772055  CLST         278          1.0000000000
       833       278  TIP3  H1           -0.5226213247       -6.9062457706        2.7511362483  CLST         278          1.0000000000
       834       278  TIP3  H2           -0.9017824535       -6.8202503802        4.1572284125  CLST         278          1.0000000000
       835       279  TIP3  OH2         -13.5700043411        6.3910099217        0.3489547102  CLST         279          1.0000000000
       836       279  TIP3  H1          -13.8924111091        5.4701353406        0.1997509092  CLST         279          1.0000000000
       837       279  TIP3  H2          -12.6134731521        6.2491162608        0.6289212497  CLST         279          1.0000000000
       838       280  TIP3  OH2          -3.3604270904      -10.1031310165        5.5631946961  CLST         280          1.0000000000
       839       280  TIP3  H1           -3.0682359006       -9.2882076513        6.0672489559  CLST         280          1.0000000000
       840       280  TIP3  H2           -3.8166909443       -9.5705956255        4.8657107053  CLST         280          1.0000000000
       841       281  TIP3  OH2           8.1084748224        7.6467309688      -10.7573838930  CLST         281          1.0000000000
       842       281  TIP3  H1            8.5344546079        8.5195214431      -10.6037642893  CLST         281          1.0000000000
       843       281  TIP3  H2            7.1635977760        7.8570141383      -10.7176000955  CLST         281          1.0000000000
       844       282  TIP3  OH2          -7.7706903879      -11.8268507716        9.8962435937  CLST         282          1.0000000000
       845       282  TIP3  H1           -8.6083217642      -11.5307529136        9.5538978683  CLST         282          1.0000000000
       846       282  TIP3  H2           -7.3300122713      -12.2105169762        9.1042012702  CLST         282          1.0000000000
       847       283  TIP3  OH2           4.5394174914        8.7186355304       -4.6546048535  CLST         283          1.0000000000
       848       283  TIP3  H1            4.7381496928        9.6698822194       -4.7796468426  CLST         283          1.0000000000
       849       283  TIP3  H2            4.0115658254        8.6368328985       -3.7698759485  CLST         283          1.0000000000
       850       284  TIP3  OH2          12.0001511176        8.3741720065       -1.3409505493  CLST         284          1.0000000000
       851       284  TIP3  H1           12.1453045619        7.7305138707       -2.0538307490  CLST         284          1.0000000000
       852       284  TIP3  H2           11.1353320953        8.7541347591       -1.5854167794  CLST         284          1.0000000000
       853       285  TIP3  OH2          -5.2714656509        1.9419132813        8.8732390353  CLST         285          1.0000000000
       854       285  TIP3  H1           -4.5089267848        1.7898248193        8.2701277365  CLST         285          1.0000000000
       855       285  TIP3  H2           -4.7783349637        2.6134915142        9.4550119396  CLST         285          1.0000000000
       856       286  TIP3  OH2           2.7778234157        5.7095322556       -0.5048737898  CLST         286          1.0000000000
       857       286  TIP3  H1            2.0932135878        5.7023158293        0.1943998309  CLST         286          1.0000000000
       858       286  TIP3  H2            3.5978231605        5.7026064589        0.1372774019  CLST         286          1.0000000000
       859       287  TIP3  OH2          -4.4140278862        9.3348866588       11.2818529775  CLST         287          1.0000000000
       860       287  TIP3  H1           -4.7630982408       10.0847634308       11.7870970412  CLST         287          1.0000000000
       861       287  TIP3  H2           -5.1525273426        8.9599872436       10.7811686686  CLST         287          1.0000000000
       862       288  TIP3  OH2           5.8388895643        3.4884520293       -9.4766354967  CLST         288          1.0000000000
       863       288  TIP3  H1            5.7909039373        2.8419494761      -10.1472176297  CLST         288          1.0000000000
       864       288  TIP3  H2            6.5431598536        4.0937838558       -9.8645177137  CLST         288          1.0000000000
       865       289  TIP3  OH2          -7.0581284582       -5.1225526032       -8.3187000488  CLST         289          1.0000000000
       866       289  TIP3  H1           -7.8225144277       -4.4429690399       -8.2516268708  CLST         289          1.0000000000
       867       289  TIP3  H2           -6.5170340874       -4.9353246284       -7.5876422458  CLST         289          1.0000000000
       868       290  TIP3  OH2           2.2177108775      -12.0508809416       11.1888020077  CLST         290          1.0000000000
       869       290  TIP3  H1            2.8600563121      -12.4752715006       10.6504273532  CLST         290          1.0000000000
       870       290  TIP3  H2            2.7651899493      -11.7829253373       11.8537138746  CLST         290          1.0000000000
       871       291  TIP3  OH2         -10.3622106259       -3.5009324701        2.9712070835  CLST         291          1.0000000000
       872       291  TIP3  H1          -11.0854583434       -4.0777811011        3.2836264188  CLST         291          1.0000000000
       873       291  TIP3  H2          -10.6208612864       -3.3379089032        2.0680581128  CLST         291          1.0000000000
       874       292  TIP3  OH2          12.1927231209        3.6253553062       -4.4875762404  CLST         292          1.0000000000
       875       292  TIP3  H1           11.2455797921        3.4045076519       -4.2962916499  CLST         292          1.0000000000
       876       292  TIP3  H2           12.0221649430        3.9004613232       -5.4342179286  CLST         292          1.0000000000
       877       293  TIP3  OH2           8.9025310489       10.4874005415       11.1669590560  CLST         293          1.0000000000
       878       293  TIP3  H1            8.6179846590       11.0997029210       11.8818176563  CLST         293          1.0000000000
       879       293  TIP3  H2            9.0067607959       11.1270476857       10.3704735603  CLST         293          1.0000000000
       880       294  TIP3  OH2           4.3151091024        4.5660059779       -2.3933577186  CLST         294          1.0000000000
       881       294  TIP3  H1            3.8026223958        5.0791679360       -1.7096812624  CLST         294          1.0000000000
       882       294  TIP3  H2            4.3201780092        5.1366262470       -3.1910523682  CLST         294          1.0000000000
       883       295  TIP3  OH2          -2.4653594015      -13.4831623586       -8.7186180803  CLST         295          1.0000000000
       884       295  TIP3  H1           -3.1796260078      -13.2381290413       -8.0571300136  CLST         295          1.0000000000
       885       295  TIP3  H2           -1.7020657426      -13.2425006206       -8.1226878091  CLST         295          1.0000000000
       886       296  TIP3  OH2          -1.5337226677       11.4446803925      -13.1577053812  CLST         296          1.0000000000
       887       296  TIP3  H1           -0.6641894550       11.0353941265      -13.3881165402  CLST         296          1.0000000000
       888       296  TIP3  H2           -1.5045256737       11.2070565305      -12.2126684472  CLST         296          1.0000000000
       889       297  TIP3  OH2           8.0172976390       -0.3989695756       11.3537719787  CLST         297          1.0000000000
       890       297  TIP3  H1            8.6410724227       -1.1802963204       11.2161792928  CLST         297          1.0000000000
       891       297  TIP3  H2            7.2451126993       -0.9447151707       11.6883956608  CLST         297          1.0000000000
       892       298  TIP3  OH2           0.8988702732       -1.2892358075       -7.4726663440  CLST         298          1.0000000000
       893       298  TIP3  H1            1.4986519719       -0.6147077605       -8.4800886740  CLST         298          1.0000000000
       894       298  TIP3  H2            0.7507472228       -1.7907367835       -8.6319450739  CLST         298          1.0000000000
       895       299  TIP3  OH2           3.0024008025       10.1797356387       12.6019279185  CLST         299          1.0000000000
       896       299  TIP3  H1            2.1321608134       10.6450639376       12.3557835979  CLST         299          1.0000000000
       897       299  TIP3  H2            2.5047312616        9.4531804399       12.9436235636  CLST         299          1.0000000000
       898       300  TIP3  OH2         -10.6613898763        5.1832052544       -3.8713913821  CLST         300          1.0000000000
       899       300  TIP3  H1          -10.5984698645        5.8223391836       -4.6632054149  CLST         300          1.0000000000
       900       300  TIP3  H2          -10.5981849413        5.9622561354       -3.2258817805  CLST         300          1.0000000000
       901       301  TIP3  OH2           9.4640979116       -8.1471361391       11.2477571261  CLST         301          1.0000000000
       902       301  TIP3  H1            9.3011032140       -7.9110586716       12.2099903835  CLST         301          1.0000000000
       903       301  TIP3  H2            9.6094323573       -9.1265333004       11.3812732919  CLST         301          1.0000000000
       904       302  TIP3  OH2           7.7064182693       12.9161134394        5.6073544929  CLST         302          1.0000000000
       905       302  TIP3  H1            7.4472050693       13.1732094598        4.6785886253  CLST         302          1.0000000000
       906       302  TIP3  H2            6.9566427499       12.2731441773        5.6829752064  CLST         302          1.0000000000
       907       303  TIP3  OH2         -11.0725495190        1.2483940600       -2.0567979250  CLST         303          1.0000000000
       908       303  TIP3  H1          -10.0926028960        1.2397458099       -1.8646954386  CLST         303          1.0000000000
       909       303  TIP3  H2          -11.0711809762        0.5961838854       -2.7844616316  CLST         303          1.0000000000
       910       304  TIP3  OH2          -7.9557862421        1.2812728049      -15.0687052209  CLST         304          1.0000000000
       911       304  TIP3  H1           -7.5091830840        0.4648872602      -14.8205050264  CLST         304          1.0000000000
       912       304  TIP3  H2           -7.3132021574        1.8880084179      -15.4127718124  CLST         304          1.0000000000
       913       305  TIP3  OH2           3.3978864554       -3.7725698418       13.8773232956  CLST         305          1.0000000000
       914       305  TIP3  H1            4.2846590716       -3.8074829507       13.5177350226  CLST         305          1.0000000000
       915       305  TIP3  H2            3.2536933233       -2.8203266163       14.0452204382  CLST         305          1.0000000000
       916       306  TIP3  OH2           8.7742229177      -11.8874692745      -11.2644819487  CLST         306          1.0000000000
       917       306  TIP3  H1            9.5133860678      -11.6101534626      -11.8022924940  CLST         306          1.0000000000
       918       306  TIP3  H2            8.8733084360      -12.8673398960      -11.3256006559  CLST         306          1.0000000000
       919       307  TIP3  OH2           9.2662146470        7.8813162023       -7.5160425256  CLST         307          1.0000000000
       920       307  TIP3  H1            8.3755140466        8.2913507676       -7.5350101623  CLST         307          1.0000000000
       921       307  TIP3  H2            9.6128185894        8.1645359081       -6.6590462904  CLST         307          1.0000000000
       922       308  TIP3  OH2         -10.8509765561       -4.7561718226        8.8254769932  CLST         308          1.0000000000
       923       308  TIP3  H1          -10.8355369039       -5.5731603175        9.3468168949  CLST         308          1.0000000000
       924       308  TIP3  H2           -9.8875584485       -4.4558883145        8.8755998570  CLST         308          1.0000000000
       925       309  TIP3  OH2          -2.0311795334       -0.5955977322        5.3578964648  CLST         309          1.0000000000
       926       309  TIP3  H1           -2.8767714101       -0.9184752821        4.9539252141  CLST         309          1.0000000000
       927       309  TIP3  H2           -1.9001999979       -1.4121777507        5.8854837391  CLST         309          1.0000000000
       928       310  TIP3  OH2          -5.0105746039       -0.7035005911        7.2534828847  CLST         310          1.0000000000
       929       310  TIP3  H1           -4.3494282130       -0.0164811612        7.4470549793  CLST         310          1.0000000000
       930       310  TIP3  H2           -5.1033252039       -1.0379647943        8.1721312196  CLST         310          1.0000000000
       931       311  TIP3  OH2          -7.3658499386        8.3676111591      -12.2983023991  CLST         311          1.0000000000
       932       311  TIP3  H1           -6.6957415736        7.8070815413      -12.7323215765  CLST         311          1.0000000000
       933       311  TIP3  H2           -7.2975246547        7.8943592111      -11.4400597771  CLST         311          1.0000000000
       934       312  TIP3  OH2           6.4912321285       -0.9180684326       -6.3936932244  CLST         312          1.0000000000
       935       312  TIP3  H1            6.4279812310       -0.1685095888       -5.7583830463  CLST         312          1.0000000000
       936       312  TIP3  H2            6.0846228860       -1.6180812090       -5.8649042339  CLST         312          1.0000000000
       937       313  TIP3  OH2          -9.0225495870      -10.5669544364        7.1273999480  CLST         313          1.0000000000
       938       313  TIP3  H1           -8.3536069368       -9.8570099954        6.8921076561  CLST         313          1.0000000000
       939       313  TIP3  H2           -9.4213953823      -10.6670245728        6.2255306694  CLST         313          1.0000000000
       940       314  TIP3  OH2          -1.4367162527      -12.0527021697      -10.7571590404  CLST         314          1.0000000000
       941       314  TIP3  H1           -1.3689984132      -11.2398100395      -10.1767498063  CLST         314          1.0000000000
       942       314  TIP3  H2           -1.8751409583      -12.7027570066      -10.1807872544  CLST         314          1.0000000000
       943       315  TIP3  OH2          -1.5847573602       -0.6862316563       -6.5161810948  CLST         315          1.0000000000
       944       315  TIP3  H1           -0.6769748406       -0.8981753961       -6.9331397871  CLST         315          1.0000000000
       945       315  TIP3  H2           -1.2853107959       -0.2803076408       -5.6266906091  CLST         315          1.0000000000
       946       316  TIP3  OH2         -13.2957206394       -3.8240564624       -5.4495806324  CLST         316          1.0000000000
       947       316  TIP3  H1          -12.6364352681       -4.1672273694       -6.0756225859  CLST         316          1.0000000000
       948       316  TIP3  H2          -12.9907823073       -2.8971166460       -5.5457334572  CLST         316          1.0000000000
       949       317  TIP3  OH2          -6.0268319479       -0.0469575743       -3.6954230358  CLST         317          1.0000000000
       950       317  TIP3  H1           -5.2038534552        0.0248423871       -3.0342751272  CLST         317          1.0000000000
       951       317  TIP3  H2           -6.6199018621        0.1500681181       -2.9186565452  CLST         317          1.0000000000
       952       318  TIP3  OH2          -3.8631084113       -9.4565753766       -9.3231656461  CLST         318          1.0000000000
       953       318  TIP3  H1           -4.0096789871       -9.7039062120       -8.3477833031  CLST         318          1.0000000000
       954       318  TIP3  H2           -2.8859684202       -9.4157875864       -9.3469909560  CLST         318          1.0000000000
       955       319  TIP3  OH2           5.6140959207       10.7532201952        8.6688451589  CLST         319          1.0000000000
       956       319  TIP3  H1            6.4107127043       10.4383870414        8.1925924050  CLST         319          1.0000000000
       957       319  TIP3  H2            6.0199298723       11.3591614540        9.2869972662  CLST         319          1.0000000000
       958       320  TIP3  OH2         -10.5910799180        1.1017399457      -14.5413105768  CLST         320          1.0000000000
       959       320  TIP3  H1           -9.6402207979        1.1055631750      -14.8825630878  CLST         320          1.0000000000
       960       320  TIP3  H2          -10.5513990809        0.2365957104      -14.1626134558  CLST         320          1.0000000000
       961       321  TIP3  OH2          -9.8763684138       10.0716578005       -9.6671082580  CLST         321          1.0000000000
       962       321  TIP3  H1          -10.7189808828       10.1946146130       -9.4771982789  CLST         321          1.0000000000
       963       321  TIP3  H2           -9.9324113729       10.1163404865      -10.7097382220  CLST         321          1.0000000000
       964       322  TIP3  OH2         -12.6467496488       -1.7771221518       -2.3862051004  CLST         322          1.0000000000
       965       322  TIP3  H1          -12.4109502802       -1.3146272517       -3.2394862082  CLST         322          1.0000000000
       966       322  TIP3  H2          -11.7194077623       -1.8097707376       -1.9782371721  CLST         322          1.0000000000
       967       323  TIP3  OH2          -0.9246958803        3.9743423067        4.2422978510  CLST         323          1.0000000000
       968       323  TIP3  H1           -0.3674893365        3.1601093752        4.2102857451  CLST         323          1.0000000000
       969       323  TIP3  H2           -0.9862890522        4.1753685285        3.2812109047  CLST         323          1.0000000000
       970       324  TIP3  OH2         -10.9718019014        6.2239231797        1.4447638068  CLST         324          1.0000000000
       971       324  TIP3  H1          -11.2352842608        5.5642630367        2.1138945029  CLST         324          1.0000000000
       972       324  TIP3  H2          -10.2081408826        6.6900591206        1.9056205806  CLST         324          1.0000000000
       973       325  TIP3  OH2          -4.6234747544        0.8635802473        3.5961994764  CLST         325          1.0000000000
       974       325  TIP3  H1           -5.5928482000        0.9852926237        3.5510537472  CLST         325          1.0000000000
       975       325  TIP3  H2           -4.3823177654        1.7004113066        4.0200700865  CLST         325          1.0000000000
       976       326  TIP3  OH2           9.1066292903        8.7146602858       -2.7569768160  CLST         326          1.0000000000
       977       326  TIP3  H1            9.1114922858        8.0584065938       -2.0431024381  CLST         326          1.0000000000
       978       326  TIP3  H2            8.3023621281        8.4471708394       -3.2194333830  CLST         326          1.0000000000
       979       327  TIP3  OH2          10.3445404796       -3.5537346818      -13.1156501522  CLST         327          1.0000000000
       980       327  TIP3  H1           10.4309461584       -3.4291458001      -13.9409924587  CLST         327          1.0000000000
       981       327  TIP3  H2           10.2563938024       -2.8114773420      -12.4175534604  CLST         327          1.0000000000
       982       328  TIP3  OH2           2.2472153703        7.0160008985       -9.8761594457  CLST         328          1.0000000000
       983       328  TIP3  H1            2.6587451602        6.3027477969       -9.3162424657  CLST         328          1.0000000000
       984       328  TIP3  H2            3.0940383736        7.5384369763       -9.8255518103  CLST         328          1.0000000000
       985       329  TIP3  OH2           1.5248957181      -11.6775942259       -2.3165717614  CLST         329          1.0000000000
       986       329  TIP3  H1            1.5906510795      -10.6968836020       -2.5684781023  CLST         329          1.0000000000
       987       329  TIP3  H2            2.3738036274      -11.6483882612       -1.7761941063  CLST         329          1.0000000000
       988       330  TIP3  OH2          -9.4405843783       -0.7983072043        3.3722538851  CLST         330          1.0000000000
       989       330  TIP3  H1           -9.6001148415       -1.7854080500        3.4863079135  CLST         330          1.0000000000
       990       330  TIP3  H2          -10.2413554548       -0.5133039352        3.8909084026  CLST         330          1.0000000000
       991       331  TIP3  OH2          12.3466807896        9.7248837898       -8.9404191366  CLST         331          1.0000000000
       992       331  TIP3  H1           13.0017888400        9.5013999967       -9.6970818301  CLST         331          1.0000000000
       993       331  TIP3  H2           11.8946851497        8.7842721963       -8.9916317559  CLST         331          1.0000000000
       994       332  TIP3  OH2          11.3039464382       -1.3726254910       -4.5440051773  CLST         332          1.0000000000
       995       332  TIP3  H1           12.1863143986       -1.6536520517       -4.8588370051  CLST         332          1.0000000000
       996       332  TIP3  H2           11.5163441740       -0.5336982477       -4.1243255367  CLST         332          1.0000000000
       997       333  TIP3  OH2          10.6148885290      -14.1950280905        7.8973223486  CLST         333          1.0000000000
       998       333  TIP3  H1            9.7089566145      -13.8452916473        8.1698785703  CLST         333          1.0000000000
       999       333  TIP3  H2           10.6566310533      -14.0051987787        6.9197574486  CLST         333          1.0000000000
      1000       334  TIP3  OH2         -10.6497887893       -9.8507191731        9.1049369036  CLST         334          1.0000000000
      1001       334  TIP3  H1          -11.4125597141      -10.2577666434        8.6358105326  CLST         334          1.0000000000
      1002       334  TIP3  H2           -9.9873666663      -10.0169961549        8.3607095658  CLST         334          1.0000000000
      1003       335  TIP3  OH2           6.7284373044      -10.0796947205        1.5185404482  CLST         335          1.0000000000
      1004       335  TIP3  H1            6.7374471947       -9.9525597890        2.4933065861  CLST         335          1.0000000000
      1005       335  TIP3  H2            5.7533369264      -10.0930587271        1.4063744155  CLST         335          1.0000000000
      1006       336  TIP3  OH2          -9.1342793654       -3.6342700849       -3.5196397439  CLST         336          1.0000000000
      1007       336  TIP3  H1           -9.4693603199       -4.4426641348       -3.9700017754  CLST         336          1.0000000000
      1008       336  TIP3  H2           -9.0342124944       -3.0964099666       -4.3230717583  CLST         336          1.0000000000
      1009       337  TIP3  OH2          -1.6185644799       -4.8449375493        8.0789098854  CLST         337          1.0000000000
      1010       337  TIP3  H1           -1.3327776440       -4.4095054168        8.9192391313  CLST         337          1.0000000000
      1011       337  TIP3  H2           -2.2382055024       -4.1333582775        7.7860144214  CLST         337          1.0000000000
      1012       338  TIP3  OH2          -0.5208750245        2.6886255703       10.6914070155  CLST         338          1.0000000000
      1013       338  TIP3  H1           -0.4936717064        2.3638623202        9.7184663963  CLST         338          1.0000000000
      1014       338  TIP3  H2            0.0196741598        2.0668004864       11.0983392034  CLST         338          1.0000000000
      1015       339  TIP3  OH2           7.8140644413        7.9666597807        2.8386731884  CLST         339          1.0000000000
      1016       339  TIP3  H1            7.5015694992        8.6438972771        3.4533679187  CLST         339          1.0000000000
      1017       339  TIP3  H2            7.1346334503        7.7151160669        2.1722025727  CLST         339          1.0000000000
      1018       340  TIP3  OH2          -4.6693545369      -11.5967545349      -11.2088725623  CLST         340          1.0000000000
      1019       340  TIP3  H1           -4.4201341244      -10.8078352431      -10.6551749798  CLST         340          1.0000000000
      1020       340  TIP3  H2           -3.9316079317      -12.1948145501      -11.0514169631  CLST         340          1.0000000000
      1021       341  TIP3  OH2          -6.8481034083        4.7265320100        9.4839481344  CLST         341          1.0000000000
      1022       341  TIP3  H1           -5.9772165405        4.6176128968        9.9694788339  CLST         341          1.0000000000
      1023       341  TIP3  H2           -6.8745780662        3.8503472072        9.0956111453  CLST         341          1.0000000000
      1024       342  TIP3  OH2          -4.3807208232      -10.9602740500       13.7726602909  CLST         342          1.0000000000
      1025       342  TIP3  H1           -5.1110113503      -10.9438523582       13.0112253827  CLST         342          1.0000000000
      1026       342  TIP3  H2           -4.6819178720      -10.7305922587       14.5464835900  CLST         342          1.0000000000
      1027       343  TIP3  OH2           1.3875660533       -8.8626739604       -9.8497704758  CLST         343          1.0000000000
      1028       343  TIP3  H1            1.6444024770       -8.0058906639      -10.2670198694  CLST         343          1.0000000000
      1029       343  TIP3  H2            1.6505075400       -9.4618732669      -10.5834765896  CLST         343          1.0000000000
      1030       344  TIP3  OH2           5.5958384721       -3.9390706606        6.4788049918  CLST         344          1.0000000000
      1031       344  TIP3  H1            4.9121264762       -4.4234722322        6.9564816287  CLST         344          1.0000000000
      1032       344  TIP3  H2            6.0289703668       -4.6230824304        5.8789649821  CLST         344          1.0000000000
      1033       345  TIP3  OH2          13.0402751012        7.1237565192        8.8895469722  CLST         345          1.0000000000
      1034       345  TIP3  H1           12.2625794808        6.7554478077        8.4269917395  CLST         345          1.0000000000
      1035       345  TIP3  H2           12.5265835654        7.2830948751        9.7270088943  CLST         345          1.0000000000
      1036       346  TIP3  OH2           9.4237102786        9.3352903436        1.0801001247  CLST         346          1.0000000000
      1037       346  TIP3  H1            9.7226871820       10.0943008696        1.6933021607  CLST         346          1.0000000000
      1038       346  TIP3  H2            8.9287991296        8.7393438480        1.6914876997  CLST         346          1.0000000000
      1039       347  TIP3  OH2          -5.0494459329        2.9794300829       -9.6703606184  CLST         347          1.0000000000
      1040       347  TIP3  H1           -5.7434645967        3.1833464544       -8.9628399608  CLST         347          1.0000000000
      1041       347  TIP3  H2           -4.3992661941        2.6232140614       -9.0360063828  CLST         347          1.0000000000
      1042       348  TIP3  OH2          -1.2178183680        6.0007752870        5.8371557696  CLST         348          1.0000000000
      1043       348  TIP3  H1           -1.3035640307        5.1578639037        5.2481157974  CLST         348          1.0000000000
      1044       348  TIP3  H2           -0.5743124609        6.3817553059        5.1684667042  CLST         348          1.0000000000
      1045       349  TIP3  OH2          -4.1273072564        5.0812240933       -2.6071970084  CLST         349          1.0000000000
      1046       349  TIP3  H1           -3.7378885960        4.5944027099       -3.3613776675  CLST         349          1.0000000000
      1047       349  TIP3  H2           -3.3883385029        5.7799420503       -2.6683093251  CLST         349          1.0000000000
      1048       350  TIP3  OH2          -2.7209110761        8.9614782212        5.2359990237  CLST         350          1.0000000000
      1049       350  TIP3  H1           -3.1155389267        8.6610693285        4.3422872167  CLST         350          1.0000000000
      1050       350  TIP3  H2           -2.6917804289        8.0762780054        5.6166079755  CLST         350          1.0000000000
      1051       351  TIP3  OH2           4.8907672133       -7.6172853330       -7.7883111783  CLST         351          1.0000000000
      1052       351  TIP3  H1            4.1969152780       -8.3161718258       -7.8097090473  CLST         351          1.0000000000
      1053       351  TIP3  H2            4.8632301413       -7.4903239447       -8.7766495785  CLST         351          1.0000000000
      1054       352  TIP3  OH2         -10.3998769401      -10.9268690124        1.8284790086  CLST         352          1.0000000000
      1055       352  TIP3  H1           -9.5687555428      -10.7023767069        1.5077749094  CLST         352          1.0000000000
      1056       352  TIP3  H2          -10.9734366147      -10.3241530977        1.3087804226  CLST         352          1.0000000000
      1057       353  TIP3  OH2          10.8746375627       -8.0947186407       -8.6139085258  CLST         353          1.0000000000
      1058       353  TIP3  H1           10.0341615070       -8.5799773273       -8.7872200763  CLST         353          1.0000000000
      1059       353  TIP3  H2           11.2738017888       -8.3807031748       -7.8007182149  CLST         353          1.0000000000
      1060       354  TIP3  OH2           6.8852701658      -10.4531706795        4.1359775045  CLST         354          1.0000000000
      1061       354  TIP3  H1            7.6474637290      -10.8497256085        4.6886188941  CLST         354          1.0000000000
      1062       354  TIP3  H2            6.7531872892       -9.7279836946        4.8231119896  CLST         354          1.0000000000
      1063       355  TIP3  OH2          -7.2311858523        9.0027870010       -8.9404767795  CLST         355          1.0000000000
      1064       355  TIP3  H1           -6.9876945956        9.8962784020       -8.6063569270  CLST         355          1.0000000000
      1065       355  TIP3  H2           -8.1772799247        9.1374802258       -9.1946149959  CLST         355          1.0000000000
      1066       356  TIP3  OH2          12.4611523082        0.8009710758       -2.0988969812  CLST         356          1.0000000000
      1067       356  TIP3  H1           11.4877276795        0.6724082594       -2.1953294265  CLST         356          1.0000000000
      1068       356  TIP3  H2           12.6435851525        0.6709232983       -1.1571241970  CLST         356          1.0000000000
      1069       357  TIP3  OH2          -0.7361466254       -0.4647044136       -1.8877642379  CLST         357          1.0000000000
      1070       357  TIP3  H1            0.1863530058       -0.8678411413       -1.9245142835  CLST         357          1.0000000000
      1071       357  TIP3  H2           -0.7204252425       -0.3202376476       -2.8886637595  CLST         357          1.0000000000
      1072       358  TIP3  OH2          -5.6515505299        7.0531659970       -7.6606378968  CLST         358          1.0000000000
      1073       358  TIP3  H1           -6.0665627683        7.7742161356       -8.2071149740  CLST         358          1.0000000000
      1074       358  TIP3  H2           -6.4480846968        6.6854284195       -7.2423395469  CLST         358          1.0000000000
      1075       359  TIP3  OH2          -5.0021024440       12.0854347636        6.1451582158  CLST         359          1.0000000000
      1076       359  TIP3  H1           -5.4130940631       11.9945457414        5.2661960278  CLST         359          1.0000000000
      1077       359  TIP3  H2           -4.0551300074       12.1756357760        5.9381931563  CLST         359          1.0000000000
      1078       360  TIP3  OH2          -6.8659724937        5.7503019070       -3.3844517991  CLST         360          1.0000000000
      1079       360  TIP3  H1           -6.7969895233        6.4425950745       -2.6806833669  CLST         360          1.0000000000
      1080       360  TIP3  H2           -5.9079713059        5.3805384142       -3.1858095790  CLST         360          1.0000000000
      1081       361  TIP3  OH2          -1.6275454111       -1.0681270079        9.9681212598  CLST         361          1.0000000000
      1082       361  TIP3  H1           -1.6560077170       -0.3783637511       10.7251126802  CLST         361          1.0000000000
      1083       361  TIP3  H2           -1.6976778293       -1.9018804099       10.4161546096  CLST         361          1.0000000000
      1084       362  TIP3  OH2         -10.6412277589        2.8166550393        0.7656787747  CLST         362          1.0000000000
      1085       362  TIP3  H1          -10.3743499958        3.5406457190        0.1254357408  CLST         362          1.0000000000
      1086       362  TIP3  H2          -11.0061905019        2.1800371536        0.1344940952  CLST         362          1.0000000000
      1087       363  TIP3  OH2          10.6354217573        2.4111367635       10.2933481043  CLST         363          1.0000000000
      1088       363  TIP3  H1           10.9860086638        1.4455265568       10.0933083347  CLST         363          1.0000000000
      1089       363  TIP3  H2           11.1950397872        3.0394932147       10.5474975428  CLST         363          1.0000000000
      1090       364  TIP3  OH2           7.6436736589       -5.6942116895       -6.2857139082  CLST         364          1.0000000000
      1091       364  TIP3  H1            6.8665745375       -5.1279008802       -6.5428682162  CLST         364          1.0000000000
      1092       364  TIP3  H2            8.2480263153       -5.6138313902       -7.0683604299  CLST         364          1.0000000000
      1093       365  TIP3  OH2          -6.1079878997       -6.7701072966        2.6245821530  CLST         365          1.0000000000
      1094       365  TIP3  H1           -6.5838259669       -5.9039131656        2.6032703951  CLST         365          1.0000000000
      1095       365  TIP3  H2           -6.8899097185       -7.2558538747        3.1136091821  CLST         365          1.0000000000
      1096       366  TIP3  OH2           1.9103102156       -1.3855813472       -2.9181312786  CLST         366          1.0000000000
      1097       366  TIP3  H1            2.8365504084       -1.5403846267       -2.6222679809  CLST         366          1.0000000000
      1098       366  TIP3  H2            2.0676543515       -1.0055359888       -3.7985354149  CLST         366          1.0000000000
      1099       367  TIP3  OH2          -5.1140289044       11.6691755398       12.4875021684  CLST         367          1.0000000000
      1100       367  TIP3  H1           -5.9768723634       11.8165446919       11.9442243395  CLST         367          1.0000000000
      1101       367  TIP3  H2           -5.0620998893       12.4254120942       12.9819970518  CLST         367          1.0000000000
      1102       368  TIP3  OH2          -2.6327522126        6.5107206788        1.1524981286  CLST         368          1.0000000000
      1103       368  TIP3  H1           -2.7513505618        7.2866592696        0.5434634908  CLST         368          1.0000000000
      1104       368  TIP3  H2           -3.0283238870        7.0342724464        1.9309595506  CLST         368          1.0000000000
      1105       369  TIP3  OH2         -11.5077031675       -1.6207034786       -6.4541917132  CLST         369          1.0000000000
      1106       369  TIP3  H1          -10.7776863645       -2.2623657957       -6.3268086160  CLST         369          1.0000000000
      1107       369  TIP3  H2          -11.7971421068       -1.9625793923       -7.3462470873  CLST         369          1.0000000000
      1108       370  TIP3  OH2         -11.9723699294        5.5341516515      -11.4930247942  CLST         370          1.0000000000
      1109       370  TIP3  H1          -12.2108087403        4.9066612905      -12.2937790535  CLST         370          1.0000000000
      1110       370  TIP3  H2          -12.6573825536        5.1624375380      -11.0401599870  CLST         370          1.0000000000
      1111       371  TIP3  OH2           2.1863356192        7.7843459042        5.7708621651  CLST         371          1.0000000000
      1112       371  TIP3  H1            2.0845488402        7.5223210276        6.6932024638  CLST         371          1.0000000000
      1113       371  TIP3  H2            3.1060795263        8.0259151298        5.7720860990  CLST         371          1.0000000000
      1114       372  TIP3  OH2           8.1801755344       -7.5038730478        9.0798482028  CLST         372          1.0000000000
      1115       372  TIP3  H1            8.9588620926       -7.2862931231        8.5508658677  CLST         372          1.0000000000
      1116       372  TIP3  H2            8.6654485750       -7.6968828720        9.9535126656  CLST         372          1.0000000000
      1117       373  TIP3  OH2          10.9791069951       -0.2680130425        6.6987343912  CLST         373          1.0000000000
      1118       373  TIP3  H1           11.3410338379        0.5478322202        6.2224137312  CLST         373          1.0000000000
      1119       373  TIP3  H2           10.1911946439       -0.2569106585        6.1263398595  CLST         373          1.0000000000
      1120       374  TIP3  OH2          -9.3189899553        4.6699000752      -12.2488689849  CLST         374          1.0000000000
      1121       374  TIP3  H1           -9.4263028236        5.3181379568      -12.9934436632  CLST         374          1.0000000000
      1122       374  TIP3  H2          -10.0282107472        5.0495963073      -11.6923100152  CLST         374          1.0000000000
      1123       375  TIP3  OH2           9.8710674807       -5.5024984466       -2.7234881744  CLST         375          1.0000000000
      1124       375  TIP3  H1           10.2908606129       -5.1660000044       -3.5528682741  CLST         375          1.0000000000
      1125       375  TIP3  H2           10.3284380734       -6.3919769632       -2.6496433659  CLST         375          1.0000000000
      1126       376  TIP3  OH2          -2.1818317408      -11.2338156350       12.1345917851  CLST         376          1.0000000000
      1127       376  TIP3  H1           -2.8881767901      -10.8773751244       12.8373084387  CLST         376          1.0000000000
      1128       376  TIP3  H2           -2.9336718652      -11.6138527565       11.6122220589  CLST         376          1.0000000000
      1129       377  TIP3  OH2         -10.0679989401       12.9378821195       10.6187116667  CLST         377          1.0000000000
      1130       377  TIP3  H1           -9.1541800147       12.6332448119       10.9132632376  CLST         377          1.0000000000
      1131       377  TIP3  H2           -9.8223995045       13.1057300272        9.6991347535  CLST         377          1.0000000000
      1132       378  TIP3  OH2           2.0738809555       -8.0162170148        7.2525619462  CLST         378          1.0000000000
      1133       378  TIP3  H1            1.9561522386       -7.1238021134        6.8690417118  CLST         378          1.0000000000
      1134       378  TIP3  H2            1.6771848018       -8.0095968707        8.1384806224  CLST         378          1.0000000000
      1135       379  TIP3  OH2          -9.5727649724        9.2269169344       -1.2574444586  CLST         379          1.0000000000
      1136       379  TIP3  H1           -8.9237584913        9.4379669080       -0.5325307761  CLST         379          1.0000000000
      1137       379  TIP3  H2           -9.7639406670       10.1671784320       -1.5685417605  CLST         379          1.0000000000
      1138       380  TIP3  OH2           2.8105509572       -4.3176655271      -11.2277870641  CLST         380          1.0000000000
      1139       380  TIP3  H1            2.2805637856       -3.5889598339      -11.6743081323  CLST         380          1.0000000000
      1140       380  TIP3  H2            3.1297564774       -4.7106301578      -12.0979994344  CLST         380          1.0000000000
      1141       381  TIP3  OH2          10.2085381954        4.2225396144        3.4830222651  CLST         381          1.0000000000
      1142       381  TIP3  H1            9.2964182284        4.5189327132        3.6852963928  CLST         381          1.0000000000
      1143       381  TIP3  H2           10.6857153005        5.0662399490        3.7141360517  CLST         381          1.0000000000
      1144       382  TIP3  OH2           1.9707501100       -5.3863286122        5.7462054487  CLST         382          1.0000000000
      1145       382  TIP3  H1            2.3659252886       -4.9119872617        6.4986858504  CLST         382          1.0000000000
      1146       382  TIP3  H2            2.7295777435       -5.9303700712        5.3867020057  CLST         382          1.0000000000
      1147       383  TIP3  OH2          10.2586294015        8.9595815861        4.7786096886  CLST         383          1.0000000000
      1148       383  TIP3  H1            9.3719677297        9.3658440616        4.5948221376  CLST         383          1.0000000000
      1149       383  TIP3  H2           10.6925250987        9.8503257974        4.9040973762  CLST         383          1.0000000000
      1150       384  TIP3  OH2          -3.2630163252       -1.8646375640       -8.0891172857  CLST         384          1.0000000000
      1151       384  TIP3  H1           -2.8829116216       -2.7645983088       -8.3037997901  CLST         384          1.0000000000
      1152       384  TIP3  H2           -2.6058055245       -1.4386968205       -7.4540098294  CLST         384          1.0000000000
      1153       385  TIP3  OH2           3.6474919107      -11.7285554519       -0.7869369512  CLST         385          1.0000000000
      1154       385  TIP3  H1            4.5048125542      -12.2898728877       -0.6485719212  CLST         385          1.0000000000
      1155       385  TIP3  H2            3.7732888063      -11.0623481490       -0.0557345715  CLST         385          1.0000000000
      1156       386  TIP3  OH2          -4.1937129794        9.2973729176       -6.0343774957  CLST         386          1.0000000000
      1157       386  TIP3  H1           -4.6320345620        8.4850326337       -6.4526257082  CLST         386          1.0000000000
      1158       386  TIP3  H2           -4.0489822381        9.7705622123       -6.8789255933  CLST         386          1.0000000000
      1159       387  TIP3  OH2          -9.8456317065       10.6626316339        2.8283515568  CLST         387          1.0000000000
      1160       387  TIP3  H1          -10.6710752120       10.6018001060        2.2662232390  CLST         387          1.0000000000
      1161       387  TIP3  H2           -9.2018101438       10.2830747330        2.1737096351  CLST         387          1.0000000000
      1162       388  TIP3  OH2          -1.8759199949      -12.2769362815        5.9693745063  CLST         388          1.0000000000
      1163       388  TIP3  H1           -2.1563552701      -11.3249670795        5.6786410276  CLST         388          1.0000000000
      1164       388  TIP3  H2           -1.9955653188      -12.0192756068        6.9187689343  CLST         388          1.0000000000
      1165       389  TIP3  OH2          -8.2047709309        3.4575424099       -3.6638878166  CLST         389          1.0000000000
      1166       389  TIP3  H1           -7.8357861729        4.3428157375       -3.3956828354  CLST         389          1.0000000000
      1167       389  TIP3  H2           -9.0557056525        3.7634884962       -4.0838540998  CLST         389          1.0000000000
      1168       390  TIP3  OH2          -5.7130440533       -4.0911064422        4.5700467991  CLST         390          1.0000000000
      1169       390  TIP3  H1           -5.2786083312       -3.1515206244        4.5589090017  CLST         390          1.0000000000
      1170       390  TIP3  H2           -5.2001435167       -4.3754555049        3.8029236229  CLST         390          1.0000000000
      1171       391  TIP3  OH2          -8.7665598725       -8.8673539503       -6.2940360569  CLST         391          1.0000000000
      1172       391  TIP3  H1           -9.3427272122       -9.4318263138       -6.8165002643  CLST         391          1.0000000000
      1173       391  TIP3  H2           -8.1364241170       -9.5236251057       -5.9576337039  CLST         391          1.0000000000
      1174       392  TIP3  OH2           1.1139128789       -1.8280250614       10.1566550366  CLST         392          1.0000000000
      1175       392  TIP3  H1            0.4393757433       -2.4810517934       10.5054195059  CLST         392          1.0000000000
      1176       392  TIP3  H2            0.4211439821       -1.1486660051        9.9403292943  CLST         392          1.0000000000
      1177       393  TIP3  OH2          11.0779716878      -12.1950850298       -0.6338510268  CLST         393          1.0000000000
      1178       393  TIP3  H1           11.5921666000      -10.9663601578       -0.7205457097  CLST         393          1.0000000000
      1179       393  TIP3  H2           11.6948897982      -12.7039601677       -0.9698111633  CLST         393          1.0000000000
      1180       394  TIP3  OH2           0.5605531944       11.8027681520       -8.6331983464  CLST         394          1.0000000000
      1181       394  TIP3  H1            1.2342732875       12.1927895573       -8.0341048792  CLST         394          1.0000000000
      1182       394  TIP3  H2            0.6767480626       10.8854915579       -8.2774832098  CLST         394          1.0000000000
      1183       395  TIP3  OH2           6.8451967040        7.4938138574       -4.4631387898  CLST         395          1.0000000000
      1184       395  TIP3  H1            5.9502175973        7.9887308001       -4.5636247934  CLST         395          1.0000000000
      1185       395  TIP3  H2            6.7898694803        7.2057843884       -5.4485845604  CLST         395          1.0000000000
      1186       396  TIP3  OH2          -1.0532299433       -9.9759519937       -9.0593723982  CLST         396          1.0000000000
      1187       396  TIP3  H1           -1.0710958905       -9.9164512341       -8.0552156106  CLST         396          1.0000000000
      1188       396  TIP3  H2           -0.2236225961       -9.5144449794       -9.2370140293  CLST         396          1.0000000000
      1189       397  TIP3  OH2          11.3423356125        7.1587888674       -8.9264713903  CLST         397          1.0000000000
      1190       397  TIP3  H1           11.7833674072        6.6677643859       -8.2611731180  CLST         397          1.0000000000
      1191       397  TIP3  H2           10.4529764697        7.2361364500       -8.4283852576  CLST         397          1.0000000000
      1192       398  TIP3  OH2          10.8022012171        7.8361742542       -4.8489486892  CLST         398          1.0000000000
      1193       398  TIP3  H1           10.1385754721        8.0826391036       -4.1392842567  CLST         398          1.0000000000
      1194       398  TIP3  H2           11.4712198008        7.4117959180       -4.2744066429  CLST         398          1.0000000000
      1195       399  TIP3  OH2           1.7955481443       11.1233692615        4.9140247406  CLST         399          1.0000000000
      1196       399  TIP3  H1            1.0539194944       10.5715115974        5.2087373223  CLST         399          1.0000000000
      1197       399  TIP3  H2            2.3654704146       11.1072626988        5.7302063948  CLST         399          1.0000000000
      1198       400  TIP3  OH2           4.0137818320       -2.9573585704       -5.1394935268  CLST         400          1.0000000000
      1199       400  TIP3  H1            4.7643695823       -2.9488116814       -4.5471362544  CLST         400          1.0000000000
      1200       400  TIP3  H2            4.3435613238       -3.5308913994       -5.8674461701  CLST         400          1.0000000000
      1201       401  TIP3  OH2         -14.7593116687       10.0363135784        5.5060741111  CLST         401          1.0000000000
      1202       401  TIP3  H1          -14.1755446486       10.1816406501        6.3017346677  CLST         401          1.0000000000
      1203       401  TIP3  H2          -15.6432962181        9.8626547275        5.8821390379  CLST         401          1.0000000000
      1204       402  TIP3  OH2           1.8629598686       -1.7509984258       12.8160632330  CLST         402          1.0000000000
      1205       402  TIP3  H1            1.4370338079       -2.7313903368       12.8002262074  CLST         402          1.0000000000
      1206       402  TIP3  H2            1.8644884179       -1.7903496575       11.7955231304  CLST         402          1.0000000000
      1207       403  TIP3  OH2          -1.8814128916       -6.9768494401       -0.7722501141  CLST         403          1.0000000000
      1208       403  TIP3  H1           -2.2078339495       -6.6089464051       -1.5631771460  CLST         403          1.0000000000
      1209       403  TIP3  H2           -1.8383354318       -7.9452826107       -1.1019655868  CLST         403          1.0000000000
      1210       404  TIP3  OH2          -4.9214721165       -2.6162172506        9.1812954194  CLST         404          1.0000000000
      1211       404  TIP3  H1           -5.1219397429       -3.0409740687       10.0412831674  CLST         404          1.0000000000
      1212       404  TIP3  H2           -5.2107550624       -3.3903158819        8.5664562364  CLST         404          1.0000000000
      1213       405  TIP3  OH2         -11.9234095782        7.2845212716       11.3435496936  CLST         405          1.0000000000
      1214       405  TIP3  H1          -11.9416592941        6.3327432815       10.9820564875  CLST         405          1.0000000000
      1215       405  TIP3  H2          -12.7609866216        7.1224885628       11.7761866560  CLST         405          1.0000000000
      1216       406  TIP3  OH2           1.1031783267        7.7184853298      -12.1047570198  CLST         406          1.0000000000
      1217       406  TIP3  H1            1.3252526071        8.6882017120      -12.2183348569  CLST         406          1.0000000000
      1218       406  TIP3  H2            1.5041172706        7.4561681920      -11.1230880044  CLST         406          1.0000000000
      1219       407  TIP3  OH2          10.5281326722      -13.4160928375        5.2069083456  CLST         407          1.0000000000
      1220       407  TIP3  H1           10.3961059708      -13.2368183206        4.2220392711  CLST         407          1.0000000000
      1221       407  TIP3  H2           11.2190064609      -12.6954343524        5.3119653095  CLST         407          1.0000000000
      1222       408  TIP3  OH2          -2.9177906050      -11.5795256661        1.9519274988  CLST         408          1.0000000000
      1223       408  TIP3  H1           -2.1048233321      -10.9785578684        1.8883378894  CLST         408          1.0000000000
      1224       408  TIP3  H2           -2.4008560880      -12.3651380385        2.1486698014  CLST         408          1.0000000000
      1225       409  TIP3  OH2           1.1793083414       -9.6162097282        9.6240269483  CLST         409          1.0000000000
      1226       409  TIP3  H1            0.7176545630       -9.6992856525       10.4786535452  CLST         409          1.0000000000
      1227       409  TIP3  H2            1.7440575357      -10.4082656985        9.7242039356  CLST         409          1.0000000000
      1228       410  TIP3  OH2           9.9039709635       -7.2109350238       -5.3528806497  CLST         410          1.0000000000
      1229       410  TIP3  H1            9.0931482624       -6.8849723642       -5.7900564999  CLST         410          1.0000000000
      1230       410  TIP3  H2           10.4418421040       -6.4327279997       -5.4982940932  CLST         410          1.0000000000
      1231       411  TIP3  OH2         -10.0259617645       -2.2834512319       -1.2771813777  CLST         411          1.0000000000
      1232       411  TIP3  H1           -9.0919332712       -2.0209466326       -1.0618825521  CLST         411          1.0000000000
      1233       411  TIP3  H2           -9.7315856751       -2.6973209783       -2.1453940874  CLST         411          1.0000000000
      1234       412  TIP3  OH2           6.7213122619      -10.5535092079      -12.0451695822  CLST         412          1.0000000000
      1235       412  TIP3  H1            6.2065522483      -10.6951091799      -11.2181192187  CLST         412          1.0000000000
      1236       412  TIP3  H2            7.5101338315      -11.1388080276      -11.8309393421  CLST         412          1.0000000000
      1237       413  TIP3  OH2           7.0967605900       13.0679744214        0.1998386861  CLST         413          1.0000000000
      1238       413  TIP3  H1            7.6527679081       12.5449213485       -0.4388111080  CLST         413          1.0000000000
      1239       413  TIP3  H2            7.8236744099       13.5193967972        0.6784408611  CLST         413          1.0000000000
      1240       414  TIP3  OH2           1.4066833782       -2.4717462177      -12.2582143769  CLST         414          1.0000000000
      1241       414  TIP3  H1            0.5306552677       -2.0413914907      -12.0488570968  CLST         414          1.0000000000
      1242       414  TIP3  H2            1.5000885363       -2.4478957129      -13.2127870602  CLST         414          1.0000000000
      1243       415  TIP3  OH2           4.0801421035        5.2394179959       -8.2016480415  CLST         415          1.0000000000
      1244       415  TIP3  H1            3.5647265670        4.3638909839       -8.0645080153  CLST         415          1.0000000000
      1245       415  TIP3  H2            4.6154742880        4.7692743107       -8.9410818370  CLST         415          1.0000000000
      1246       416  TIP3  OH2           5.5909850345       12.3201089246       -7.7108107617  CLST         416          1.0000000000
      1247       416  TIP3  H1            5.4703779875       13.0684871809       -8.0618905368  CLST         416          1.0000000000
      1248       416  TIP3  H2            6.8413013228       12.0094516822       -8.3519780175  CLST         416          1.0000000000
      1249       417  TIP3  OH2          12.6284405037      -11.2677785142        2.7588784575  CLST         417          1.0000000000
      1250       417  TIP3  H1           11.9538155444      -11.9245574305        2.4358079468  CLST         417          1.0000000000
      1251       417  TIP3  H2           12.5343288732      -10.4841704494        2.2203697722  CLST         417          1.0000000000
      1252       418  TIP3  OH2          -9.2348961527       -1.4516612819        8.3537014633  CLST         418          1.0000000000
      1253       418  TIP3  H1           -8.7152403356       -1.0035899720        7.6590973584  CLST         418          1.0000000000
      1254       418  TIP3  H2           -9.4577284850       -0.7086487421        8.9187877985  CLST         418          1.0000000000
      1255       419  TIP3  OH2          14.8267784666        0.3167815397       -6.3469651472  CLST         419          1.0000000000
      1256       419  TIP3  H1           15.4957350340        1.4625413938       -4.6303865234  CLST         419          1.0000000000
      1257       419  TIP3  H2           15.5700906930        0.8846957257       -6.2335752756  CLST         419          1.0000000000
      1258       420  TIP3  OH2          -8.1563167121       -8.2413896384        3.6689807838  CLST         420          1.0000000000
      1259       420  TIP3  H1           -8.9565100915       -8.0194418529        3.0967345342  CLST         420          1.0000000000
      1260       420  TIP3  H2           -8.3700709065       -9.2158850358        3.7959004131  CLST         420          1.0000000000
      1261       421  TIP3  OH2           3.4929226147       -6.3120824269      -13.4313081780  CLST         421          1.0000000000
      1262       421  TIP3  H1            4.3362060358       -6.7974547551      -13.3515373975  CLST         421          1.0000000000
      1263       421  TIP3  H2            2.9067482241       -7.1216475234      -13.4104460157  CLST         421          1.0000000000
      1264       422  TIP3  OH2          -1.7843127770       -9.5533859326       -1.8121541681  CLST         422          1.0000000000
      1265       422  TIP3  H1           -1.1745701890      -10.3555657958       -1.7356855611  CLST         422          1.0000000000
      1266       422  TIP3  H2           -2.6124503291      -10.1581365928       -1.8034171858  CLST         422          1.0000000000
      1267       423  TIP3  OH2           1.6700856752        4.8672088034       -3.9499587899  CLST         423          1.0000000000
      1268       423  TIP3  H1            2.4903607465        5.2426830772       -4.3614255238  CLST         423          1.0000000000
      1269       423  TIP3  H2            2.0035189390        4.6715251203       -3.0426988844  CLST         423          1.0000000000
      1270       424  TIP3  OH2          -9.0612974185        4.2578511056        4.5072527151  CLST         424          1.0000000000
      1271       424  TIP3  H1           -9.2453158662        3.6553697578        3.7730234938  CLST         424          1.0000000000
      1272       424  TIP3  H2           -8.8460556617        5.1332812415        4.1045497449  CLST         424          1.0000000000
      1273       425  TIP3  OH2           8.1280360307      -12.8011078676        8.3982353686  CLST         425          1.0000000000
      1274       425  TIP3  H1            8.0462504722      -12.4037117094        7.4758740290  CLST         425          1.0000000000
      1275       425  TIP3  H2            7.8724961968      -11.9775828623        8.8307462301  CLST         425          1.0000000000
      1276       426  TIP3  OH2           8.3149494571        2.3908081522        8.2720188109  CLST         426          1.0000000000
      1277       426  TIP3  H1            8.9564058130        2.4737224691        9.0249945600  CLST         426          1.0000000000
      1278       426  TIP3  H2            8.4367564268        3.3455077701        7.8870478058  CLST         426          1.0000000000
      1279       427  TIP3  OH2          11.3427003251        7.5402511153       11.0082326722  CLST         427          1.0000000000
      1280       427  TIP3  H1           11.3630224192        8.1800498994       11.7093412484  CLST         427          1.0000000000
      1281       427  TIP3  H2           10.4945059341        7.0213312041       11.0164900745  CLST         427          1.0000000000
      1282       428  TIP3  OH2          12.3997491412        7.6486553862        1.3310534478  CLST         428          1.0000000000
      1283       428  TIP3  H1           12.3071962174        7.9972146899        0.3622642078  CLST         428          1.0000000000
      1284       428  TIP3  H2           13.3113016806        7.3591634982        1.2545307116  CLST         428          1.0000000000
      1285       429  TIP3  OH2          11.7958596247       -9.8124564094       -0.7901751749  CLST         429          1.0000000000
      1286       429  TIP3  H1           12.1494960560       -9.3027068407        0.0047160771  CLST         429          1.0000000000
      1287       429  TIP3  H2           11.3304110078       -9.1003960145       -1.2915341016  CLST         429          1.0000000000
      1288       430  TIP3  OH2           9.8597736530       -6.6753253295        3.6451850211  CLST         430          1.0000000000
      1289       430  TIP3  H1            9.7202923830       -7.1149852870        2.7561891883  CLST         430          1.0000000000
      1290       430  TIP3  H2           10.8901301863       -6.8015035614        3.5755989179  CLST         430          1.0000000000
      1291       431  TIP3  OH2         -12.8421760806        9.2680427461       -2.5139157359  CLST         431          1.0000000000
      1292       431  TIP3  H1          -13.3186199521        9.5627892743       -3.1646474003  CLST         431          1.0000000000
      1293       431  TIP3  H2          -13.4162662996        9.2658729283       -1.6864947589  CLST         431          1.0000000000
      1294       432  TIP3  OH2           5.4280470736        8.3545659536      -10.0818870080  CLST         432          1.0000000000
      1295       432  TIP3  H1            5.7832378834        8.5374499745       -9.1661016225  CLST         432          1.0000000000
      1296       432  TIP3  H2            4.9278894097        9.2115311860      -10.0925885443  CLST         432          1.0000000000
      1297       433  TIP3  OH2          -0.5970750044        8.2411296064        7.7684345032  CLST         433          1.0000000000
      1298       433  TIP3  H1           -1.5201857659        8.5124919936        7.9472127186  CLST         433          1.0000000000
      1299       433  TIP3  H2           -0.8092869554        7.3977930246        7.2525636329  CLST         433          1.0000000000
      1300       434  TIP3  OH2          -7.3055564986        0.6448261867        3.7842463812  CLST         434          1.0000000000
      1301       434  TIP3  H1           -7.6897642488        1.4607305712        3.1938068788  CLST         434          1.0000000000
      1302       434  TIP3  H2           -8.2010538221       -0.0324944007        3.5764662457  CLST         434          1.0000000000
      1303       435  TIP3  OH2           9.9792966034       -0.3826194150       -7.2435266881  CLST         435          1.0000000000
      1304       435  TIP3  H1            9.8596319897       -0.4248825961       -6.2910732813  CLST         435          1.0000000000
      1305       435  TIP3  H2           10.6245197698        0.3057180930       -7.4578107669  CLST         435          1.0000000000
      1306       436  TIP3  OH2           3.7762634820       10.5118424706       -9.1436530321  CLST         436          1.0000000000
      1307       436  TIP3  H1            4.0218697950       11.2524346561       -8.5742367956  CLST         436          1.0000000000
      1308       436  TIP3  H2            2.8716384123       10.3272824281       -8.8277775955  CLST         436          1.0000000000
      1309       437  TIP3  OH2          -8.4126222394       -0.9743420423       -7.9552383698  CLST         437          1.0000000000
      1310       437  TIP3  H1           -8.6899381037       -0.4276618471       -8.7253195987  CLST         437          1.0000000000
      1311       437  TIP3  H2           -7.4299947471       -0.7897182747       -7.9709797615  CLST         437          1.0000000000
      1312       438  TIP3  OH2          -3.4390396741        5.6323750133       -8.1339351517  CLST         438          1.0000000000
      1313       438  TIP3  H1           -4.1500465264        6.2823486076       -7.8020772973  CLST         438          1.0000000000
      1314       438  TIP3  H2           -3.7484373518        5.7895226693       -9.0805223105  CLST         438          1.0000000000
      1315       439  TIP3  OH2          14.2434733788        1.7118628084       -4.0002637028  CLST         439          1.0000000000
      1316       439  TIP3  H1           13.6868266192        2.5257823123       -4.0222523569  CLST         439          1.0000000000
      1317       439  TIP3  H2           13.6656663787        1.2630337433       -3.3254943759  CLST         439          1.0000000000
      1318       440  TIP3  OH2           1.1686897941      -12.8874940178      -11.1707917831  CLST         440          1.0000000000
      1319       440  TIP3  H1            0.2292356446      -12.5967870715      -11.1594904807  CLST         440          1.0000000000
      1320       440  TIP3  H2            1.1677861720      -13.6616857752      -11.5475958625  CLST         440          1.0000000000
      1321       441  TIP3  OH2          -1.4900266967       -4.3562676494        3.1122522977  CLST         441          1.0000000000
      1322       441  TIP3  H1           -1.9497636933       -3.5721092251        3.3211262716  CLST         441          1.0000000000
      1323       441  TIP3  H2           -1.2052261507       -4.7029276090        4.0051395270  CLST         441          1.0000000000
      1324       442  TIP3  OH2           3.3497535576       -9.8563088082       -8.1068713178  CLST         442          1.0000000000
      1325       442  TIP3  H1            3.6762763533      -10.4115183735       -8.8553512616  CLST         442          1.0000000000
      1326       442  TIP3  H2            2.5608533464       -9.4070652929       -8.5079790443  CLST         442          1.0000000000
      1327       443  TIP3  OH2           1.2652804929       10.4572415435      -12.7619401699  CLST         443          1.0000000000
      1328       443  TIP3  H1            1.6014121949       10.9985157954      -12.0365870754  CLST         443          1.0000000000
      1329       443  TIP3  H2            1.5401796729       11.1320952379      -13.3970741470  CLST         443          1.0000000000
      1330       444  TIP3  OH2          -7.9246899844        1.3598912361       -1.8022662445  CLST         444          1.0000000000
      1331       444  TIP3  H1           -8.0158489331        2.0205587722       -2.5411275233  CLST         444          1.0000000000
      1332       444  TIP3  H2           -7.4429133713        1.9984613093       -1.1622842847  CLST         444          1.0000000000
      1333       445  TIP3  OH2         -11.5100472632       -5.2676297430        6.2474736147  CLST         445          1.0000000000
      1334       445  TIP3  H1          -11.2996450115       -4.3828453223        5.8474666185  CLST         445          1.0000000000
      1335       445  TIP3  H2          -11.5156515034       -4.9602316188        7.1963375506  CLST         445          1.0000000000
      1336       446  TIP3  OH2          -2.8211530083        4.5780094649       -5.4784505719  CLST         446          1.0000000000
      1337       446  TIP3  H1           -3.1895641614        4.8886869696       -6.3365203380  CLST         446          1.0000000000
      1338       446  TIP3  H2           -1.9453421028        5.0566687979       -5.4616573970  CLST         446          1.0000000000
      1339       447  TIP3  OH2          -5.1699988609      -12.6314908451       -3.8081888184  CLST         447          1.0000000000
      1340       447  TIP3  H1           -5.5633031311      -13.2713682746       -3.2804235770  CLST         447          1.0000000000
      1341       447  TIP3  H2           -4.7042709800      -12.0931093330       -3.1009028085  CLST         447          1.0000000000
      1342       448  TIP3  OH2           7.3085003818        9.5924089083        4.7917761762  CLST         448          1.0000000000
      1343       448  TIP3  H1            7.5379920877        9.6442742612        5.7710566570  CLST         448          1.0000000000
      1344       448  TIP3  H2            6.5600648773       10.2153017981        4.7593887384  CLST         448          1.0000000000
      1345       449  TIP3  OH2           4.3729707441        5.2809219730        8.5107391573  CLST         449          1.0000000000
      1346       449  TIP3  H1            5.0205128032        4.7445564321        9.0026837979  CLST         449          1.0000000000
      1347       449  TIP3  H2            4.1030423175        4.6772907123        7.7825587807  CLST         449          1.0000000000
      1348       450  TIP3  OH2          -4.0178661609        0.3689960906       -2.0838234662  CLST         450          1.0000000000
      1349       450  TIP3  H1           -3.6248349916        0.9816235273       -2.7147363025  CLST         450          1.0000000000
      1350       450  TIP3  H2           -3.3178564937       -0.2966417461       -1.8297023512  CLST         450          1.0000000000
      1351       451  TIP3  OH2          13.3517656231       -1.6194823835       -6.2249639386  CLST         451          1.0000000000
      1352       451  TIP3  H1           13.9073996229       -2.2739938272       -5.7576637455  CLST         451          1.0000000000
      1353       451  TIP3  H2           13.9848777275       -0.9139215800       -6.2980145196  CLST         451          1.0000000000
      1354       452  TIP3  OH2           8.4926776584        4.9879418938        8.0337009834  CLST         452          1.0000000000
      1355       452  TIP3  H1            7.6546951628        5.5051376085        7.8484506665  CLST         452          1.0000000000
      1356       452  TIP3  H2            9.0632549428        5.5984408944        7.5069226501  CLST         452          1.0000000000
      1357       453  TIP3  OH2           6.9754980931        2.6949776219       -6.1246759633  CLST         453          1.0000000000
      1358       453  TIP3  H1            6.0870049116        2.4146464370       -5.7198343214  CLST         453          1.0000000000
      1359       453  TIP3  H2            6.5769638975        2.8154842884       -7.0666162328  CLST         453          1.0000000000
      1360       454  TIP3  OH2           1.2023325444        5.4629170951        1.8763617336  CLST         454          1.0000000000
      1361       454  TIP3  H1            0.3447915369        5.0717324090        1.5166405830  CLST         454          1.0000000000
      1362       454  TIP3  H2            0.8243834093        6.0518956790        2.5564256029  CLST         454          1.0000000000
      1363       455  TIP3  OH2          -1.1772653170        0.7947123687      -10.3339186872  CLST         455          1.0000000000
      1364       455  TIP3  H1           -0.8994958708        1.0036666152       -9.4246249464  CLST         455          1.0000000000
      1365       455  TIP3  H2           -1.3232253680        1.7094819428      -10.6751112656  CLST         455          1.0000000000
      1366       456  TIP3  OH2           5.2322577070       11.3548594749        5.0799982336  CLST         456          1.0000000000
      1367       456  TIP3  H1            4.7233002853       11.8467218367        4.4105404515  CLST         456          1.0000000000
      1368       456  TIP3  H2            4.5793955607       11.0496179981        5.7364878831  CLST         456          1.0000000000
      1369       457  TIP3  OH2          -4.8602451127       -7.6879659203        4.8091895268  CLST         457          1.0000000000
      1370       457  TIP3  H1           -5.5713683175       -7.5738618440        5.3869164894  CLST         457          1.0000000000
      1371       457  TIP3  H2           -5.2222253937       -7.2833588867        3.9462657372  CLST         457          1.0000000000
      1372       458  TIP3  OH2           7.9358207997       -6.3989823970      -11.3987815923  CLST         458          1.0000000000
      1373       458  TIP3  H1            8.9392651741       -6.2713630347      -11.4598438146  CLST         458          1.0000000000
      1374       458  TIP3  H2            7.8430171667       -5.6440463131      -10.8003825920  CLST         458          1.0000000000
      1375       459  TIP3  OH2           6.5577495023      -10.0276042934       -7.8616951830  CLST         459          1.0000000000
      1376       459  TIP3  H1            6.1098756277       -9.1336377148       -7.7246410902  CLST         459          1.0000000000
      1377       459  TIP3  H2            7.3501202659       -9.6850818649       -8.3240717119  CLST         459          1.0000000000
      1378       460  TIP3  OH2           9.2339990698       -2.1026540421       -2.7679665286  CLST         460          1.0000000000
      1379       460  TIP3  H1            9.8258118196       -2.2468479005       -1.9989896559  CLST         460          1.0000000000
      1380       460  TIP3  H2            9.8776316552       -1.9743369146       -3.4432535199  CLST         460          1.0000000000
      1381       461  TIP3  OH2          -1.3680612474      -12.8054867520       -5.3177194416  CLST         461          1.0000000000
      1382       461  TIP3  H1           -0.7463234254      -13.1436099385       -5.9725473237  CLST         461          1.0000000000
      1383       461  TIP3  H2           -0.9918495589      -13.2461290747       -4.5215519093  CLST         461          1.0000000000
      1384       462  TIP3  OH2           0.0645543739        5.3644479731      -12.8034383530  CLST         462          1.0000000000
      1385       462  TIP3  H1            0.2002454412        6.3260635015      -12.5210424983  CLST         462          1.0000000000
      1386       462  TIP3  H2            1.0188857970        5.2997934495      -13.0114722043  CLST         462          1.0000000000
      1387       463  TIP3  OH2          -1.6564645725        1.8579554456       -7.7692092263  CLST         463          1.0000000000
      1388       463  TIP3  H1           -1.4658920086        1.1545109133       -7.1150750801  CLST         463          1.0000000000
      1389       463  TIP3  H2           -2.6383276971        1.7364796891       -7.7444088451  CLST         463          1.0000000000
      1390       464  TIP3  OH2          -6.6483136923        6.2307421237        4.2935852694  CLST         464          1.0000000000
      1391       464  TIP3  H1           -6.4350917573        5.4520282970        4.7469334571  CLST         464          1.0000000000
      1392       464  TIP3  H2           -6.7570910671        6.9270162064        4.9537694212  CLST         464          1.0000000000
      1393       465  TIP3  OH2          -4.5807032464      -12.4936922942        6.3985336793  CLST         465          1.0000000000
      1394       465  TIP3  H1           -3.6527014936      -12.8701734312        6.2200447342  CLST         465          1.0000000000
      1395       465  TIP3  H2           -4.3164753617      -11.5796497076        6.1585850091  CLST         465          1.0000000000
      1396       466  TIP3  OH2          -2.4172235986        9.2248805454       -4.3029666528  CLST         466          1.0000000000
      1397       466  TIP3  H1           -3.0724867658        9.3173781059       -5.0223182686  CLST         466          1.0000000000
      1398       466  TIP3  H2           -2.6649772830        9.8173754825       -3.6128471706  CLST         466          1.0000000000
      1399       467  TIP3  OH2           8.1702310747        5.8812189093        4.5275389508  CLST         467          1.0000000000
      1400       467  TIP3  H1            8.8331059967        6.3128051800        5.0925597061  CLST         467          1.0000000000
      1401       467  TIP3  H2            8.0791175323        6.6646314089        3.8980057922  CLST         467          1.0000000000
      1402       468  TIP3  OH2          -0.4988796059      -12.4201441235       10.3428752815  CLST         468          1.0000000000
      1403       468  TIP3  H1           -0.9381490612      -12.3278783809       11.1953800586  CLST         468          1.0000000000
      1404       468  TIP3  H2            0.4463080678      -12.5346482854       10.6266821214  CLST         468          1.0000000000
      1405       469  TIP3  OH2           5.3491138398        8.5254402248       14.2232536382  CLST         469          1.0000000000
      1406       469  TIP3  H1            5.9818845138        8.6792587446       13.5208802880  CLST         469          1.0000000000
      1407       469  TIP3  H2            4.7399571297        9.2112377742       13.9753325739  CLST         469          1.0000000000
      1408       470  TIP3  OH2         -11.1108252488       12.7625709129        0.3968398642  CLST         470          1.0000000000
      1409       470  TIP3  H1          -10.8423394963       12.2636010594       -0.3775499741  CLST         470          1.0000000000
      1410       470  TIP3  H2          -11.6247483791       12.0946250428        0.8047930021  CLST         470          1.0000000000
      1411       471  TIP3  OH2          -4.3092511067        9.6928517042       -9.1714188841  CLST         471          1.0000000000
      1412       471  TIP3  H1           -4.0618553372        8.7605629788       -9.3854923769  CLST         471          1.0000000000
      1413       471  TIP3  H2           -4.6526573651        9.8989199320      -10.0990170033  CLST         471          1.0000000000
      1414       472  TIP3  OH2         -11.9315506269        3.8701565902        2.7934722093  CLST         472          1.0000000000
      1415       472  TIP3  H1          -12.5065399047        3.0311248551        2.8539752253  CLST         472          1.0000000000
      1416       472  TIP3  H2          -11.3250896348        3.3915045408        2.2076476616  CLST         472          1.0000000000
      1417       473  TIP3  OH2           5.3368638435        0.7670831390       10.2047408331  CLST         473          1.0000000000
      1418       473  TIP3  H1            5.8844931989        1.5300170356       10.3323989460  CLST         473          1.0000000000
      1419       473  TIP3  H2            4.4241690488        1.2069581843       10.1683257546  CLST         473          1.0000000000
      1420       474  TIP3  OH2           1.1714494563        1.6663566360        1.4758256886  CLST         474          1.0000000000
      1421       474  TIP3  H1            0.2479986795        1.7850239487        1.2287007927  CLST         474          1.0000000000
      1422       474  TIP3  H2            1.2500411123        0.7428801288        1.1996289690  CLST         474          1.0000000000
      1423       475  TIP3  OH2           6.0850750173       -8.5913406332       11.9406200847  CLST         475          1.0000000000
      1424       475  TIP3  H1            7.0077919815       -8.2765436829       12.0140136788  CLST         475          1.0000000000
      1425       475  TIP3  H2            6.0662414925       -9.0886741848       11.0908977583  CLST         475          1.0000000000
      1426       476  TIP3  OH2         -11.5020923228       -9.0691203575        0.0050471353  CLST         476          1.0000000000
      1427       476  TIP3  H1          -11.7370553363       -8.1953436801       -0.4419928432  CLST         476          1.0000000000
      1428       476  TIP3  H2          -10.6530240556       -9.1188975717       -0.4557064623  CLST         476          1.0000000000
      1429       477  TIP3  OH2         -12.5478818089        3.7483732183      -13.4258008052  CLST         477          1.0000000000
      1430       477  TIP3  H1          -13.2025568215        3.0689330474      -13.4914483809  CLST         477          1.0000000000
      1431       477  TIP3  H2          -11.8301607210        3.2695004375      -13.8973887677  CLST         477          1.0000000000
      1432       478  TIP3  OH2          -3.9317545639        6.5900084613      -10.5592984777  CLST         478          1.0000000000
      1433       478  TIP3  H1           -4.3441584225        6.1380341411      -11.3017257044  CLST         478          1.0000000000
      1434       478  TIP3  H2           -3.2088375702        7.1064028485      -11.1167352812  CLST         478          1.0000000000
      1435       479  TIP3  OH2           7.8856251096       -1.5982641635       -8.5226398481  CLST         479          1.0000000000
      1436       479  TIP3  H1            8.5639199448       -1.0135745246       -8.1653220197  CLST         479          1.0000000000
      1437       479  TIP3  H2            7.3165870802       -1.4919213363       -7.7229503240  CLST         479          1.0000000000
      1438       480  TIP3  OH2          -6.1421938892        7.6114552012       -0.1703555692  CLST         480          1.0000000000
      1439       480  TIP3  H1           -5.3165304157        8.1205212598       -0.3001613263  CLST         480          1.0000000000
      1440       480  TIP3  H2           -5.8190518040        6.6915555100       -0.0548212282  CLST         480          1.0000000000
      1441       481  TIP3  OH2          -2.9335820328        2.4462539216       11.9482919639  CLST         481          1.0000000000
      1442       481  TIP3  H1           -2.0172144273        2.5887983502       11.5629088495  CLST         481          1.0000000000
      1443       481  TIP3  H2           -2.7825532740        1.5568557458       12.2904149492  CLST         481          1.0000000000
      1444       482  TIP3  OH2          -8.0341929849       11.6872883558       -7.5248533912  CLST         482          1.0000000000
      1445       482  TIP3  H1           -8.5991075597       11.3258523259       -8.2712931423  CLST         482          1.0000000000
      1446       482  TIP3  H2           -7.3407310092       12.1561078462       -8.0550177567  CLST         482          1.0000000000
      1447       483  TIP3  OH2           6.3292871054       -5.8624427969       12.7884712695  CLST         483          1.0000000000
      1448       483  TIP3  H1            5.5848433385       -6.4833976741       12.6661078256  CLST         483          1.0000000000
      1449       483  TIP3  H2            6.4372687519       -5.4980443876       11.8689788958  CLST         483          1.0000000000
      1450       484  TIP3  OH2           6.8291283883       -2.9204404624        3.0356608397  CLST         484          1.0000000000
      1451       484  TIP3  H1            5.9242190100       -2.8805276074        2.7400234129  CLST         484          1.0000000000
      1452       484  TIP3  H2            6.7398820091       -2.2012073579        3.7305025679  CLST         484          1.0000000000
      1453       485  TIP3  OH2         -11.8021084422        4.3798489921       10.1225189041  CLST         485          1.0000000000
      1454       485  TIP3  H1          -11.2853405234        3.4795525855       10.1307959475  CLST         485          1.0000000000
      1455       485  TIP3  H2          -12.3510322261        4.2225203904        9.3436043125  CLST         485          1.0000000000
      1456       486  TIP3  OH2           8.4567537195       -7.0670335014       13.6740043145  CLST         486          1.0000000000
      1457       486  TIP3  H1            8.5032647713       -7.1968870445       14.5309821557  CLST         486          1.0000000000
      1458       486  TIP3  H2            7.6079518422       -6.4511227513       13.4905427071  CLST         486          1.0000000000
      1459       487  TIP3  OH2          12.3196683785       -8.4346556400        6.0747821915  CLST         487          1.0000000000
      1460       487  TIP3  H1           11.3340185337       -8.3577290052        6.2511681530  CLST         487          1.0000000000
      1461       487  TIP3  H2           12.5712326138       -8.5823033258        7.0355343624  CLST         487          1.0000000000
      1462       488  TIP3  OH2          14.9172021801        8.2814900466        7.5865898291  CLST         488          1.0000000000
      1463       488  TIP3  H1           15.6432962181        7.7109540614        7.7974868320  CLST         488          1.0000000000
      1464       488  TIP3  H2           14.1830989219        7.7474863353        8.0771195317  CLST         488          1.0000000000
      1465       489  TIP3  OH2          -6.1802027588      -10.8344839859       11.7769755486  CLST         489          1.0000000000
      1466       489  TIP3  H1           -6.3498689307       -9.9398572672       11.4780236742  CLST         489          1.0000000000
      1467       489  TIP3  H2           -6.9159827652      -11.3363126541       11.2115742059  CLST         489          1.0000000000
      1468       490  TIP3  OH2           6.6940870074      -13.0956949068        2.3657468781  CLST         490          1.0000000000
      1469       490  TIP3  H1            6.4859183977      -12.1657844225        2.5724167556  CLST         490          1.0000000000
      1470       490  TIP3  H2            7.3675729832      -13.2127318888        2.9994574356  CLST         490          1.0000000000
      1471       491  TIP3  OH2           3.1228405515       -9.2676800224        5.1718546452  CLST         491          1.0000000000
      1472       491  TIP3  H1            2.2198252530       -9.1120260741        5.4190599818  CLST         491          1.0000000000
      1473       491  TIP3  H2            3.0549950937       -9.9393447812        4.4501158211  CLST         491          1.0000000000
      1474       492  TIP3  OH2          -0.4596551071       -6.5216149833       12.2497258844  CLST         492          1.0000000000
      1475       492  TIP3  H1           -0.6989432835       -7.5533164780       12.0954037391  CLST         492          1.0000000000
      1476       492  TIP3  H2           -1.3928032878       -6.1652497683       12.0515925085  CLST         492          1.0000000000
      1477       493  TIP3  OH2           3.4066306833       10.7362945233        7.0545569233  CLST         493          1.0000000000
      1478       493  TIP3  H1            4.1398212924       10.8897564095        7.7453043945  CLST         493          1.0000000000
      1479       493  TIP3  H2            2.7070133958       10.3236841632        7.6708441084  CLST         493          1.0000000000
      1480       494  TIP3  OH2          -9.2994826629        5.3149145728       -0.6909390591  CLST         494          1.0000000000
      1481       494  TIP3  H1           -9.3459464965        6.1145848688       -1.2725503449  CLST         494          1.0000000000
      1482       494  TIP3  H2           -9.9581757747        5.6126283591        0.0343239441  CLST         494          1.0000000000
      1483       495  TIP3  OH2           4.9034984807       -6.9201332310       -2.0253117313  CLST         495          1.0000000000
      1484       495  TIP3  H1            5.3139503353       -6.3677098952       -2.7088087395  CLST         495          1.0000000000
      1485       495  TIP3  H2            5.7393181699       -7.2694220315       -1.6317030323  CLST         495          1.0000000000
      1486       496  TIP3  OH2         -12.7294146525      -10.7525026579        7.4724043810  CLST         496          1.0000000000
      1487       496  TIP3  H1          -13.2348735415      -11.2729449373        8.0675111676  CLST         496          1.0000000000
      1488       496  TIP3  H2          -12.4648042670      -11.4352756777        6.8062972949  CLST         496          1.0000000000
      1489       497  TIP3  OH2          -9.6128731946      -13.4312641347       -7.2625444243  CLST         497          1.0000000000
      1490       497  TIP3  H1          -10.0846249044      -14.2263911192       -7.5403627198  CLST         497          1.0000000000
      1491       497  TIP3  H2          -10.0633405696      -12.8675981540       -7.8766972995  CLST         497          1.0000000000
      1492       498  TIP3  OH2          -5.6211613037        0.5476672034      -11.2244100178  CLST         498          1.0000000000
      1493       498  TIP3  H1           -5.9019822408        0.5925127935      -12.1641735911  CLST         498          1.0000000000
      1494       498  TIP3  H2           -5.3541143311        1.4574440827      -11.1191031119  CLST         498          1.0000000000
      1495       499  TIP3  OH2          11.5042337257        6.7419562672        3.5891262798  CLST         499          1.0000000000
      1496       499  TIP3  H1           12.0701076342        7.0995466061        2.8751721387  CLST         499          1.0000000000
      1497       499  TIP3  H2           11.0895257177        7.6196965586        3.7669822718  CLST         499          1.0000000000
      1498       500  TIP3  OH2           2.3177039708       -8.6979378166      -13.3123796315  CLST         500          1.0000000000
      1499       500  TIP3  H1            1.5252750670       -8.7959154611      -13.7241156662  CLST         500          1.0000000000
      1500       500  TIP3  H2            2.4737084582       -9.5334535702      -12.7657806209  CLST         500          1.0000000000
      1501       501  TIP3  OH2           1.4047694876      -10.9840217171       13.9133220426  CLST         501          1.0000000000
      1502       501  TIP3  H1            1.6566557861      -11.7360813814       14.2994524523  CLST         501          1.0000000000
      1503       501  TIP3  H2            2.3499903283      -10.5845123941       13.8025375678  CLST         501          1.0000000000
      1504       502  TIP3  OH2           6.0449660370        3.7999133018        9.7279583668  CLST         502          1.0000000000
      1505       502  TIP3  H1            6.4821101038        4.2483850264       10.5277086685  CLST         502          1.0000000000
      1506       502  TIP3  H2            6.8362484768        3.3949865994        9.3260673665  CLST         502          1.0000000000
      1507       503  TIP3  OH2          10.2456238596       -0.7808085661        0.3233665914  CLST         503          1.0000000000
      1508       503  TIP3  H1           11.1671450793       -0.6843027923        0.7069927768  CLST         503          1.0000000000
      1509       503  TIP3  H2           10.2461213941        0.1276483633       -0.0797470258  CLST         503          1.0000000000
      1510       504  TIP3  OH2           8.2244942393      -13.6753113740       10.8009511020  CLST         504          1.0000000000
      1511       504  TIP3  H1            7.9859273415      -13.5247406137        9.8372284774  CLST         504          1.0000000000
      1512       504  TIP3  H2            8.3766923538      -14.6429794857       10.6928964988  CLST         504          1.0000000000
      1513       505  TIP3  OH2           3.5860828910      -10.8404100379       -5.6166997264  CLST         505          1.0000000000
      1514       505  TIP3  H1            3.4191615724      -10.4147128575       -6.5135267431  CLST         505          1.0000000000
      1515       505  TIP3  H2            3.3517453836      -10.1474392269       -5.0083859050  CLST         505          1.0000000000
      1516       506  TIP3  OH2          -9.0590070128       -3.4416808601       -8.2289568807  CLST         506          1.0000000000
      1517       506  TIP3  H1           -8.8142854711       -2.4600047332       -8.0774603295  CLST         506          1.0000000000
      1518       506  TIP3  H2           -9.3938033992       -3.3368362119       -9.1375456195  CLST         506          1.0000000000
      1519       507  TIP3  OH2          11.2626368448        9.7144330234      -12.7970269487  CLST         507          1.0000000000
      1520       507  TIP3  H1           11.9569289667        9.7794133302      -13.2485775889  CLST         507          1.0000000000
      1521       507  TIP3  H2           11.0652153841        8.3305502535      -12.5105714619  CLST         507          1.0000000000
      1522       508  TIP3  OH2           9.1780578070       12.2097835764        8.7951443082  CLST         508          1.0000000000
      1523       508  TIP3  H1            8.6165655989       12.4855961698        8.0596332012  CLST         508          1.0000000000
      1524       508  TIP3  H2           10.0672002316       12.3763365156        8.3933682705  CLST         508          1.0000000000
      1525       509  TIP3  OH2          -0.6638251704       -1.4808559442      -11.3452635347  CLST         509          1.0000000000
      1526       509  TIP3  H1           -1.5976065852       -1.7996031448      -11.3526883275  CLST         509          1.0000000000
      1527       509  TIP3  H2           -0.7665768709       -0.5712842901      -10.9676424841  CLST         509          1.0000000000
      1528       510  TIP3  OH2           8.1532090449        2.2853715101       11.5788522056  CLST         510          1.0000000000
      1529       510  TIP3  H1            8.0381137953        1.2640204977       11.4628814444  CLST         510          1.0000000000
      1530       510  TIP3  H2            9.0440894963        2.3486370217       11.1008472461  CLST         510          1.0000000000
      1531       511  TIP3  OH2          -8.7466108853       -5.9713692296       -0.7083301458  CLST         511          1.0000000000
      1532       511  TIP3  H1           -9.6908976572       -6.2016966696       -0.9318830690  CLST         511          1.0000000000
      1533       511  TIP3  H2           -8.7442791364       -5.2078506372       -1.2414384573  CLST         511          1.0000000000
      1534       512  TIP3  OH2          10.1122764231        7.0451763965        6.8830326082  CLST         512          1.0000000000
      1535       512  TIP3  H1           10.3130143797        7.6905974838        7.5676028202  CLST         512          1.0000000000
      1536       512  TIP3  H2           10.1687675476        7.6282408063        6.1065282070  CLST         512          1.0000000000
      1537       513  TIP3  OH2         -11.6965802503       10.5645855221        9.2513791359  CLST         513          1.0000000000
      1538       513  TIP3  H1          -11.1415921300       11.3067833184        9.4686365729  CLST         513          1.0000000000
      1539       513  TIP3  H2          -11.7204982804       10.0974488538       10.1579872714  CLST         513          1.0000000000
      1540       514  TIP3  OH2          -4.8814807749        4.9546647886        0.2468288810  CLST         514          1.0000000000
      1541       514  TIP3  H1           -4.1719512574        5.3058470833        0.8105749018  CLST         514          1.0000000000
      1542       514  TIP3  H2           -4.4895526989        4.8600312646       -0.6628832448  CLST         514          1.0000000000
      1543       515  TIP3  OH2          -0.7976970632        0.8785070000       -4.2701183803  CLST         515          1.0000000000
      1544       515  TIP3  H1           -1.4160797934        1.5737530689       -4.0137932993  CLST         515          1.0000000000
      1545       515  TIP3  H2           -0.0018843198        1.4768293311       -4.4555771288  CLST         515          1.0000000000
      1546       516  TIP3  OH2          -7.4227360395       -8.6241933699        6.3684311571  CLST         516          1.0000000000
      1547       516  TIP3  H1           -7.7145468334       -8.3979559356        5.4307145435  CLST         516          1.0000000000
      1548       516  TIP3  H2           -7.8859395037       -7.8281880459        6.8314752102  CLST         516          1.0000000000
      1549       517  TIP3  OH2           0.5396863664       11.0272365745       11.6180568368  CLST         517          1.0000000000
      1550       517  TIP3  H1            0.7508481718       11.1019589781       10.6687675704  CLST         517          1.0000000000
      1551       517  TIP3  H2           -0.4441121889       11.1000858033       11.5353117518  CLST         517          1.0000000000
      1552       518  TIP3  OH2         -11.7081766435       -3.3217639284      -11.4629655478  CLST         518          1.0000000000
      1553       518  TIP3  H1          -11.8722437234       -2.6847004414      -12.1533380987  CLST         518          1.0000000000
      1554       518  TIP3  H2          -11.2609813090       -3.9883091526      -11.9821754146  CLST         518          1.0000000000
      1555       519  TIP3  OH2           2.1092848844        3.3464786140        3.3659716212  CLST         519          1.0000000000
      1556       519  TIP3  H1            1.7444878953        4.0495836757        2.6999684860  CLST         519          1.0000000000
      1557       519  TIP3  H2            1.8888542310        2.5488480414        2.8088208298  CLST         519          1.0000000000
      1558       520  TIP3  OH2         -10.2371977431        6.2654499021        8.2180533648  CLST         520          1.0000000000
      1559       520  TIP3  H1          -10.6297991577        5.7584962481        7.4254737105  CLST         520          1.0000000000
      1560       520  TIP3  H2          -10.5696285756        5.6333962185        8.8890051115  CLST         520          1.0000000000
      1561       521  TIP3  OH2           8.4026635491       -8.8365621195       -9.4883606071  CLST         521          1.0000000000
      1562       521  TIP3  H1            8.5818848885       -9.3975659815      -10.2286034107  CLST         521          1.0000000000
      1563       521  TIP3  H2            8.1139662646       -8.0316507642      -10.0087425823  CLST         521          1.0000000000
      1564       522  TIP3  OH2          -5.7252992204       -6.9502730908        8.1737959728  CLST         522          1.0000000000
      1565       522  TIP3  H1           -5.8338203621       -7.7658455864        7.6465789090  CLST         522          1.0000000000
      1566       522  TIP3  H2           -4.7770051968       -7.1491875853        8.4200004475  CLST         522          1.0000000000
      1567       523  TIP3  OH2          -4.0704530469       12.0923331265      -13.6607886368  CLST         523          1.0000000000
      1568       523  TIP3  H1           -3.0264555621       11.8892256235      -13.5763952585  CLST         523          1.0000000000
      1569       523  TIP3  H2           -4.1932626540       12.8188529617      -14.1060394319  CLST         523          1.0000000000
      1570       524  TIP3  OH2           7.0200387153        3.9055347843       -1.7758697428  CLST         524          1.0000000000
      1571       524  TIP3  H1            7.2566825008        3.2097637343       -2.4296183269  CLST         524          1.0000000000
      1572       524  TIP3  H2            6.0359502606        3.9746655398       -1.9906923925  CLST         524          1.0000000000
      1573       525  TIP3  OH2           0.2729501318        6.8470247728       -2.4306838311  CLST         525          1.0000000000
      1574       525  TIP3  H1            0.4247646866        6.1851205676       -3.1176630498  CLST         525          1.0000000000
      1575       525  TIP3  H2            0.1119640024        6.1174844071       -1.7088468932  CLST         525          1.0000000000
      1576       526  TIP3  OH2           6.9675795541       -5.5919549305       -3.6020228286  CLST         526          1.0000000000
      1577       526  TIP3  H1            7.2651482900       -5.7034850260       -4.5436641565  CLST         526          1.0000000000
      1578       526  TIP3  H2            7.7949418998       -5.8731585464       -3.1816741734  CLST         526          1.0000000000
      1579       527  TIP3  OH2           0.4315953822        7.2385678551        3.8328196746  CLST         527          1.0000000000
      1580       527  TIP3  H1            1.0550546614        7.6635323611        4.4209062730  CLST         527          1.0000000000
      1581       527  TIP3  H2           -0.1263587164        7.8031966897        3.2948945386  CLST         527          1.0000000000
      1582       528  TIP3  OH2          -2.7907709816        9.8725687889        8.8433689994  CLST         528          1.0000000000
      1583       528  TIP3  H1           -3.1586386799        9.7523523358        9.7389184311  CLST         528          1.0000000000
      1584       528  TIP3  H2           -3.6348305247        9.8400789217        8.3293129065  CLST         528          1.0000000000
      1585       529  TIP3  OH2          -5.9082903566       12.2288362592       -9.2746352161  CLST         529          1.0000000000
      1586       529  TIP3  H1           -4.9993158207       12.2329175554       -8.9888279990  CLST         529          1.0000000000
      1587       529  TIP3  H2           -5.7520423379       11.5831405057      -10.0271105266  CLST         529          1.0000000000
      1588       530  TIP3  OH2          -4.4233775646       -5.5717970031      -13.1840334178  CLST         530          1.0000000000
      1589       530  TIP3  H1           -4.3661892425       -6.6080710935      -13.3205929456  CLST         530          1.0000000000
      1590       530  TIP3  H2           -3.5150228863       -5.3306711292      -12.9234262995  CLST         530          1.0000000000
      1591       531  TIP3  OH2         -11.6059682061       -0.2236592804       10.5117387931  CLST         531          1.0000000000
      1592       531  TIP3  H1          -12.4193562117       -0.0017403800       10.8724349114  CLST         531          1.0000000000
      1593       531  TIP3  H2          -11.7993233017       -0.9688452526        9.9687793493  CLST         531          1.0000000000
      1594       532  TIP3  OH2         -12.0997913188       -3.1472442172       -8.6145412447  CLST         532          1.0000000000
      1595       532  TIP3  H1          -12.7467859957       -3.7757323510       -8.4497444779  CLST         532          1.0000000000
      1596       532  TIP3  H2          -11.9113720597       -3.1272198656       -9.5501127610  CLST         532          1.0000000000
      1597       533  TIP3  OH2          -2.7991634160       -7.2219291842        8.8317951323  CLST         533          1.0000000000
      1598       533  TIP3  H1           -2.1770153017       -7.8333971422        8.3252548553  CLST         533          1.0000000000
      1599       533  TIP3  H2           -2.3944190355       -6.4054742696        8.4097745869  CLST         533          1.0000000000
      1600       534  TIP3  OH2           0.3382208646      -13.1443863154       -7.7891241568  CLST         534          1.0000000000
      1601       534  TIP3  H1            0.4502239389      -12.8232679336       -8.7024321194  CLST         534          1.0000000000
      1602       534  TIP3  H2            1.2895083878      -13.2587000558       -7.5038898049  CLST         534          1.0000000000
      1603       535  TIP3  OH2           2.6967150820        3.1790489601       -7.5827325677  CLST         535          1.0000000000
      1604       535  TIP3  H1            3.2201039571        2.6167849489       -6.9312275951  CLST         535          1.0000000000
      1605       535  TIP3  H2            1.9877632432        3.2940414473       -6.8857903491  CLST         535          1.0000000000
      1606       536  TIP3  OH2           8.0468474547      -12.7238028906       -3.4009382948  CLST         536          1.0000000000
      1607       536  TIP3  H1            7.6623102804      -12.8870635261       -4.2543069491  CLST         536          1.0000000000
      1608       536  TIP3  H2            8.6407515779      -13.4839493302       -3.4189896127  CLST         536          1.0000000000
      1609       537  TIP3  OH2          11.7577597097       -2.6752721455       -7.4895741250  CLST         537          1.0000000000
      1610       537  TIP3  H1           10.9518505186       -2.1076984047       -7.5114446070  CLST         537          1.0000000000
      1611       537  TIP3  H2           12.3407170633       -2.2593046937       -6.9283198305  CLST         537          1.0000000000
      1612       538  TIP3  OH2          -5.2247466732      -11.0031350012        0.7824466259  CLST         538          1.0000000000
      1613       538  TIP3  H1           -4.4575689454      -11.4018280993        1.3078140793  CLST         538          1.0000000000
      1614       538  TIP3  H2           -4.9701574083      -10.0357255815        0.9773589550  CLST         538          1.0000000000
      1615       539  TIP3  OH2           2.4957055744       -5.0710529340        0.7789538121  CLST         539          1.0000000000
      1616       539  TIP3  H1            1.5818266083       -5.3458517523        1.0829600195  CLST         539          1.0000000000
      1617       539  TIP3  H2            2.3263693344       -5.3858948649       -0.0897129787  CLST         539          1.0000000000
      1618       540  TIP3  OH2           3.7483485301       -6.7770201160        4.5548668136  CLST         540          1.0000000000
      1619       540  TIP3  H1            3.6249056530       -7.7330521753        4.8148213783  CLST         540          1.0000000000
      1620       540  TIP3  H2            4.0717954363       -6.8466396328        3.6053486303  CLST         540          1.0000000000
      1621       541  TIP3  OH2          -5.4611348256       10.5616848988        2.2373456666  CLST         541          1.0000000000
      1622       541  TIP3  H1           -6.0822480717       10.6768162863        3.0231143239  CLST         541          1.0000000000
      1623       541  TIP3  H2           -4.7997620054       11.3145018593        2.3706504311  CLST         541          1.0000000000
      1624       542  TIP3  OH2         -10.8888831755       14.3876078133        5.6498759478  CLST         542          1.0000000000
      1625       542  TIP3  H1          -11.0132263326       15.3215612331        5.4179609234  CLST         542          1.0000000000
      1626       542  TIP3  H2          -10.6447878184       13.9747237872        4.7427125245  CLST         542          1.0000000000
      1627       543  TIP3  OH2         -10.5850971620       11.3627183652       -2.5244956844  CLST         543          1.0000000000
      1628       543  TIP3  H1          -11.0976857633       10.6446505378       -2.9340537165  CLST         543          1.0000000000
      1629       543  TIP3  H2          -10.3937523276       11.9550798679       -3.2707955719  CLST         543          1.0000000000
      1630       544  TIP3  OH2          -0.3277952644        5.7339705987       -5.5362834884  CLST         544          1.0000000000
      1631       544  TIP3  H1           -0.1244468927        5.2186015981       -6.3898679005  CLST         544          1.0000000000
      1632       544  TIP3  H2            0.3296836284        5.2770043469       -4.9325582773  CLST         544          1.0000000000
      1633       545  TIP3  OH2          -7.9541637718        2.3761440984      -12.5245612283  CLST         545          1.0000000000
      1634       545  TIP3  H1           -8.1192846811        2.0538586541      -13.4890924723  CLST         545          1.0000000000
      1635       545  TIP3  H2           -8.5808975801        3.1703767701      -12.4571998193  CLST         545          1.0000000000
      1636       546  TIP3  OH2           3.8306140101       11.0720841632       -2.1134898869  CLST         546          1.0000000000
      1637       546  TIP3  H1            3.5156090042       10.1611607707       -2.0828717925  CLST         546          1.0000000000
      1638       546  TIP3  H2            4.5422338062       10.8857448667       -1.4886818785  CLST         546          1.0000000000
      1639       547  TIP3  OH2          -3.5385616367       -2.1920206608      -11.2052379824  CLST         547          1.0000000000
      1640       547  TIP3  H1           -3.4887268107       -2.2311202111      -10.2464989888  CLST         547          1.0000000000
      1641       547  TIP3  H2           -3.8525086398       -1.2530896740      -11.3232482818  CLST         547          1.0000000000
      1642       548  TIP3  OH2          10.5297038080        2.4125637069        1.3487188806  CLST         548          1.0000000000
      1643       548  TIP3  H1            9.5715858604        2.1594755283        1.5515445073  CLST         548          1.0000000000
      1644       548  TIP3  H2           10.4860806627        3.2418148929        1.8786291016  CLST         548          1.0000000000
