* Geometry rescue: EQUI at step 12500
*
        1644  EXT
         1         1  TIP3  OH2           4.6521355283       -1.4529180295       -2.2136398818  CLST           1          1.0000000000
         2         1  TIP3  H1            4.8752228535       -1.6880875079       -1.2565000384  CLST           1          1.0000000000
         3         1  TIP3  H2            5.2019273988       -2.1405375484       -2.6205564469  CLST           1          1.0000000000
         4         2  TIP3  OH2          10.7059232126        7.5697495996      -11.7365444549  CLST           2          1.0000000000
         5         2  TIP3  H1           11.0696835368        7.5918419757      -10.7703485601  CLST           2          1.0000000000
         6         2  TIP3  H2            9.7028542954        7.6436447611      -11.3996551257  CLST           2          1.0000000000
         7         3  TIP3  OH2           8.8733650308        5.1942627657       -4.2747394461  CLST           3          1.0000000000
         8         3  TIP3  H1            9.2428080177        5.5379503716       -3.3634644705  CLST           3          1.0000000000
         9         3  TIP3  H2            8.4242383761        5.9366104560       -4.7239404825  CLST           3          1.0000000000
        10         4  TIP3  OH2          -2.8446682564        6.6972006638       10.1231938182  CLST           4          1.0000000000
        11         4  TIP3  H1           -3.6864201716        6.9914830240        9.5821093143  CLST           4          1.0000000000
        12         4  TIP3  H2           -2.9149996130        7.4674652521       10.6867421434  CLST           4          1.0000000000
        13         5  TIP3  OH2           9.3098210024        6.0105513782       10.5684489818  CLST           5          1.0000000000
        14         5  TIP3  H1            8.7204389155        5.5907079032       11.2480154238  CLST           5          1.0000000000
        15         5  TIP3  H2            9.0091914530        5.4745734556        9.7900777661  CLST           5          1.0000000000
        16         6  TIP3  OH2          10.4944022588       -6.0134251179      -11.7025491304  CLST           6          1.0000000000
        17         6  TIP3  H1           10.9846507882       -5.5767526244      -10.9616878467  CLST           6          1.0000000000
        18         6  TIP3  H2           10.5452503702       -5.2201357971      -12.3398611814  CLST           6          1.0000000000
        19         7  TIP3  OH2         -12.4125157469        8.2758123690        5.8174788410  CLST           7          1.0000000000
        20         7  TIP3  H1          -13.2368162622        8.9471199543        5.4590760135  CLST           7          1.0000000000
        21         7  TIP3  H2          -11.7678674799        8.7494826015        6.6895255329  CLST           7          1.0000000000
        22         8  TIP3  OH2          -4.5493973577       -8.2630010454        0.6487212012  CLST           8          1.0000000000
        23         8  TIP3  H1           -4.6903001061       -7.6816346382        1.4770017306  CLST           8          1.0000000000
        24         8  TIP3  H2           -3.6771551679       -7.6724410201        0.2919555559  CLST           8          1.0000000000
        25         9  TIP3  OH2           2.6049395174      -14.0516437559       -4.1262280683  CLST           9          1.0000000000
        26         9  TIP3  H1            1.6982946162      -14.2298829070       -3.8092051102  CLST           9          1.0000000000
        27         9  TIP3  H2            2.8870288837      -13.4988823107       -3.3779819473  CLST           9          1.0000000000
        28        10  TIP3  OH2         -14.3499326528       -1.1341024357       -0.3354115385  CLST          10          1.0000000000
        29        10  TIP3  H1          -13.6631524396       -1.4410850581       -1.1072658944  CLST          10          1.0000000000
        30        10  TIP3  H2          -14.3487383356       -1.8594916550        0.2585010965  CLST          10          1.0000000000
        31        11  TIP3  OH2           6.9092679554        6.9577815407       -1.8828183911  CLST          11          1.0000000000
        32        11  TIP3  H1            7.1872331138        6.0189145830       -1.7942364417  CLST          11          1.0000000000
        33        11  TIP3  H2            6.7143591086        6.9772311278       -2.8785061439  CLST          11          1.0000000000
        34        12  TIP3  OH2          -8.3118870108        2.6690319956        1.9605612361  CLST          12          1.0000000000
        35        12  TIP3  H1           -7.8087292055        2.8188391385        1.1336553700  CLST          12          1.0000000000
        36        12  TIP3  H2           -9.2046573991        2.7444661303        1.5254653667  CLST          12          1.0000000000
        37        13  TIP3  OH2           7.8370007350        2.3591154501        1.9680426889  CLST          13          1.0000000000
        38        13  TIP3  H1            7.7733428354        3.3191865635        1.5968055682  CLST          13          1.0000000000
        39        13  TIP3  H2            7.4281928385        2.5483763598        2.8384117142  CLST          13          1.0000000000
        40        14  TIP3  OH2          -0.4587504277        2.1500146621        7.9700106329  CLST          14          1.0000000000
        41        14  TIP3  H1           -0.0838075723        3.0564723902        7.7023299936  CLST          14          1.0000000000
        42        14  TIP3  H2            0.1838831403        1.6269006542        7.3873651853  CLST          14          1.0000000000
        43        15  TIP3  OH2          -9.0043921877       -3.8801621830      -12.7354776141  CLST          15          1.0000000000
        44        15  TIP3  H1           -8.5878936474       -4.3196505865      -13.4337936013  CLST          15          1.0000000000
        45        15  TIP3  H2           -8.5083920927       -4.4085209394      -12.0023543428  CLST          15          1.0000000000
        46        16  TIP3  OH2          -3.7406291464      -12.8883725063       -6.3326747064  CLST          16          1.0000000000
        47        16  TIP3  H1           -4.3265188972      -13.1894289735       -5.6139072442  CLST          16          1.0000000000
        48        16  TIP3  H2           -2.8796232002      -12.8778243299       -5.8293069495  CLST          16          1.0000000000
        49        17  TIP3  OH2           4.9163632108      -13.2879986833       -8.3583430773  CLST          17          1.0000000000
        50        17  TIP3  H1            5.6237670671      -13.2503909359       -7.7456244408  CLST          17          1.0000000000
        51        17  TIP3  H2            4.1627571230      -13.4999941194       -7.6907326414  CLST          17          1.0000000000
        52        18  TIP3  OH2         -11.4443278945       -7.1290209417       -1.4875457769  CLST          18          1.0000000000
        53        18  TIP3  H1          -12.2118318965       -5.3027489896       -2.7479751891  CLST          18          1.0000000000
        54        18  TIP3  H2          -12.0192662598       -7.0350027541       -2.5887005092  CLST          18          1.0000000000
        55        19  TIP3  OH2          11.0718389047        0.0860638191        9.6238376225  CLST          19          1.0000000000
        56        19  TIP3  H1           10.6484140650       -0.7239746644        9.9406098490  CLST          19          1.0000000000
        57        19  TIP3  H2           11.4322314302       -0.2083520454        8.7917521665  CLST          19          1.0000000000
        58        20  TIP3  OH2         -13.1386559356        1.3991255043        2.6614739191  CLST          20          1.0000000000
        59        20  TIP3  H1          -12.8972480195        1.2221066695        1.6994521507  CLST          20          1.0000000000
        60        20  TIP3  H2          -14.0899322544        1.2172706844        2.6342886591  CLST          20          1.0000000000
        61        21  TIP3  OH2         -10.1811228827       12.6001003771       -5.4112103734  CLST          21          1.0000000000
        62        21  TIP3  H1          -10.1626111564       13.4676632913       -5.7213569498  CLST          21          1.0000000000
        63        21  TIP3  H2           -9.3948477117       12.3159309871       -5.9620580329  CLST          21          1.0000000000
        64        22  TIP3  OH2           2.6424369057       12.0941695742       -6.3642284970  CLST          22          1.0000000000
        65        22  TIP3  H1            2.8570399932       11.1930928506       -6.1778883142  CLST          22          1.0000000000
        66        22  TIP3  H2            3.0171176070       12.4982334283       -5.5089410740  CLST          22          1.0000000000
        67        23  TIP3  OH2           5.7456536868       -1.7041024406       11.4110344500  CLST          23          1.0000000000
        68        23  TIP3  H1            5.4599774666       -2.3210857633       10.7262080310  CLST          23          1.0000000000
        69        23  TIP3  H2            5.1628158839       -0.9950717401       11.1093212148  CLST          23          1.0000000000
        70        24  TIP3  OH2          -0.0754082079        1.0463993918        4.4731628397  CLST          24          1.0000000000
        71        24  TIP3  H1            0.7627658174        0.9623294174        4.9271721472  CLST          24          1.0000000000
        72        24  TIP3  H2           -0.5918423080        0.3006976224        4.8830931363  CLST          24          1.0000000000
        73        25  TIP3  OH2           3.2005176139        1.9768897964       -2.4862421445  CLST          25          1.0000000000
        74        25  TIP3  H1            3.6373075722        1.4176206982       -1.8366616971  CLST          25          1.0000000000
        75        25  TIP3  H2            3.6743779402        2.8549784429       -2.3314822109  CLST          25          1.0000000000
        76        26  TIP3  OH2          11.2828578019        5.4504202566       -6.5704665718  CLST          26          1.0000000000
        77        26  TIP3  H1           10.4354701676        5.1739439279       -7.0020063637  CLST          26          1.0000000000
        78        26  TIP3  H2           11.0599962462        6.2746429321       -6.0540003062  CLST          26          1.0000000000
        79        27  TIP3  OH2         -10.3486224291        7.0765202262       -5.5355099905  CLST          27          1.0000000000
        80        27  TIP3  H1          -10.4968488130        7.6330758663       -4.7445441184  CLST          27          1.0000000000
        81        27  TIP3  H2          -10.7524306400        7.5622773564       -6.2170670476  CLST          27          1.0000000000
        82        28  TIP3  OH2          -4.2011433021      -10.2342687254       -6.7134283987  CLST          28          1.0000000000
        83        28  TIP3  H1           -4.0885443952      -11.2539680843       -6.5769559099  CLST          28          1.0000000000
        84        28  TIP3  H2           -4.8921033303      -10.0434780248       -6.0922013448  CLST          28          1.0000000000
        85        29  TIP3  OH2         -10.8442816391        7.5440957282       -2.7520290070  CLST          29          1.0000000000
        86        29  TIP3  H1          -10.2399795940        8.1712820778       -2.2320296391  CLST          29          1.0000000000
        87        29  TIP3  H2          -11.6961515114        8.3548626346       -2.7550461285  CLST          29          1.0000000000
        88        30  TIP3  OH2           8.8278205229      -10.5883059338       -2.0122285056  CLST          30          1.0000000000
        89        30  TIP3  H1            9.2719698104      -11.0880304808       -1.3395437251  CLST          30          1.0000000000
        90        30  TIP3  H2            8.4922264942      -11.4478672647       -2.5492235050  CLST          30          1.0000000000
        91        31  TIP3  OH2          -9.7259871591       -1.3974293678      -12.9681135842  CLST          31          1.0000000000
        92        31  TIP3  H1           -9.4480771148       -2.3522436322      -12.8536260249  CLST          31          1.0000000000
        93        31  TIP3  H2           -9.5279406340       -1.0328094215      -12.0372366811  CLST          31          1.0000000000
        94        32  TIP3  OH2          -8.8281438378       -6.5588194654        6.8319662809  CLST          32          1.0000000000
        95        32  TIP3  H1           -9.7430669541       -6.2213104899        7.0586509764  CLST          32          1.0000000000
        96        32  TIP3  H2           -8.6199820018       -5.8111742258        6.1818326307  CLST          32          1.0000000000
        97        33  TIP3  OH2          11.9023870516       -8.9481896826        8.7587529141  CLST          33          1.0000000000
        98        33  TIP3  H1           11.7776265516       -9.9022571512        9.0354163102  CLST          33          1.0000000000
        99        33  TIP3  H2           11.7196108350       -8.5655971504        9.6359491630  CLST          33          1.0000000000
       100        34  TIP3  OH2           4.3690905349       -4.0380981256        2.7453729872  CLST          34          1.0000000000
       101        34  TIP3  H1            3.8369579410       -4.2288416915        1.9165372440  CLST          34          1.0000000000
       102        34  TIP3  H2            4.3180024884       -4.9264724364        3.1463974755  CLST          34          1.0000000000
       103        35  TIP3  OH2           6.0763724859       -0.7664013971        4.2483461050  CLST          35          1.0000000000
       104        35  TIP3  H1            5.2313740499       -1.2083999451        4.5769405523  CLST          35          1.0000000000
       105        35  TIP3  H2            6.3353396991       -0.1934721905        4.9805178035  CLST          35          1.0000000000
       106        36  TIP3  OH2          -1.5178633585        1.3075412600        2.1885335361  CLST          36          1.0000000000
       107        36  TIP3  H1           -2.1670502825        0.5975571817        2.2045072047  CLST          36          1.0000000000
       108        36  TIP3  H2           -1.0840351724        1.1796880935        3.0599605281  CLST          36          1.0000000000
       109        37  TIP3  OH2          -4.4049142436       -8.1740281298      -12.8656823483  CLST          37          1.0000000000
       110        37  TIP3  H1           -5.0286770096       -8.4806261548      -12.1890826414  CLST          37          1.0000000000
       111        37  TIP3  H2           -4.1016719770       -9.0021459005      -13.3251121780  CLST          37          1.0000000000
       112        38  TIP3  OH2          -3.1063533911        2.0968343758       -4.4517166840  CLST          38          1.0000000000
       113        38  TIP3  H1           -3.1183178675        3.0602073253       -4.7029119333  CLST          38          1.0000000000
       114        38  TIP3  H2           -3.5690401670        1.7237513719       -5.2372103810  CLST          38          1.0000000000
       115        39  TIP3  OH2           1.6369668747      -10.8677646707        1.9569955484  CLST          39          1.0000000000
       116        39  TIP3  H1            1.4021312843      -11.4959381845        2.6963619036  CLST          39          1.0000000000
       117        39  TIP3  H2            0.6721081785      -10.6273271427        1.8058705258  CLST          39          1.0000000000
       118        40  TIP3  OH2          -8.0543866023       12.1091916083        8.9809277117  CLST          40          1.0000000000
       119        40  TIP3  H1           -8.9327694623       12.4126292039        8.6530812415  CLST          40          1.0000000000
       120        40  TIP3  H2           -7.3913412833       12.3371210057        8.2875608138  CLST          40          1.0000000000
       121        41  TIP3  OH2           9.7016547846       -2.3476708520      -11.1442693140  CLST          41          1.0000000000
       122        41  TIP3  H1            9.0307871906       -2.9190913366      -10.5944395272  CLST          41          1.0000000000
       123        41  TIP3  H2            9.5199585969       -1.5764724368      -10.7129581045  CLST          41          1.0000000000
       124        42  TIP3  OH2           9.3565772969       10.2670112750      -10.4721936395  CLST          42          1.0000000000
       125        42  TIP3  H1           10.1556950038       10.3092426133       -9.8273408821  CLST          42          1.0000000000
       126        42  TIP3  H2           10.0300204791       10.2505474542      -11.2457479461  CLST          42          1.0000000000
       127        43  TIP3  OH2          12.1673011135       12.4882025440        7.7318760443  CLST          43          1.0000000000
       128        43  TIP3  H1           12.9745541312       12.6950374239        7.5577979779  CLST          43          1.0000000000
       129        43  TIP3  H2           12.4670402602       11.6226312975        8.2004668991  CLST          43          1.0000000000
       130        44  TIP3  OH2           7.5976176772        1.0405713859        5.9091312468  CLST          44          1.0000000000
       131        44  TIP3  H1            7.8630225890        1.5268246163        6.7527331207  CLST          44          1.0000000000
       132        44  TIP3  H2            7.3842999276        1.8902250846        5.3805518065  CLST          44          1.0000000000
       133        45  TIP3  OH2           7.8332917437        9.2139722638        7.2962138785  CLST          45          1.0000000000
       134        45  TIP3  H1            7.5966585898        8.3011152229        7.5023283260  CLST          45          1.0000000000
       135        45  TIP3  H2            8.7792378901        9.2421644593        7.4796496965  CLST          45          1.0000000000
       136        46  TIP3  OH2          -5.6229918278       -3.2135744468      -13.1931337595  CLST          46          1.0000000000
       137        46  TIP3  H1           -5.3228124362       -4.1634884222      -13.2512773773  CLST          46          1.0000000000
       138        46  TIP3  H2           -5.0694905392       -3.0346457241      -12.4130772885  CLST          46          1.0000000000
       139        47  TIP3  OH2           1.2706103088       -6.4409508780      -11.0751753152  CLST          47          1.0000000000
       140        47  TIP3  H1            1.6975110052       -5.5293265167      -10.9809623722  CLST          47          1.0000000000
       141        47  TIP3  H2            1.6326087880       -6.6068708121      -11.9984201663  CLST          47          1.0000000000
       142        48  TIP3  OH2           5.2497357959        5.5757731386        1.1040612800  CLST          48          1.0000000000
       143        48  TIP3  H1            6.1690187049        5.2212145633        0.9495195830  CLST          48          1.0000000000
       144        48  TIP3  H2            5.4650719669        6.5248398668        0.9383963919  CLST          48          1.0000000000
       145        49  TIP3  OH2          -3.3761102815      -10.6404857755      -13.6484294293  CLST          49          1.0000000000
       146        49  TIP3  H1           -2.4618138627      -10.8023895835      -13.5804284061  CLST          49          1.0000000000
       147        49  TIP3  H2           -3.8114785440      -11.2041751688      -12.9477471399  CLST          49          1.0000000000
       148        50  TIP3  OH2           2.6529730314        3.7762228583        5.9030581434  CLST          50          1.0000000000
       149        50  TIP3  H1            1.8444924814        4.0593427355        6.3213202461  CLST          50          1.0000000000
       150        50  TIP3  H2            2.3544739747        3.4594731848        4.9950740735  CLST          50          1.0000000000
       151        51  TIP3  OH2          -6.3766546554      -10.0198646752       -4.6959629155  CLST          51          1.0000000000
       152        51  TIP3  H1           -6.5782169084       -9.8198975952       -3.7242381225  CLST          51          1.0000000000
       153        51  TIP3  H2           -6.0266519382      -10.9144503152       -4.5601496816  CLST          51          1.0000000000
       154        52  TIP3  OH2           9.1168980188       -5.6828722838       -0.0495673642  CLST          52          1.0000000000
       155        52  TIP3  H1            9.3887129893       -5.4706035524       -0.9950613271  CLST          52          1.0000000000
       156        52  TIP3  H2            9.1245980916       -4.7355820222        0.1894856825  CLST          52          1.0000000000
       157        53  TIP3  OH2          -9.4690143386       10.0152828178      -12.3492443142  CLST          53          1.0000000000
       158        53  TIP3  H1           -9.9862913733       10.3849216745      -13.6128979408  CLST          53          1.0000000000
       159        53  TIP3  H2           -8.6093376350        9.4215509435      -12.7081997226  CLST          53          1.0000000000
       160        54  TIP3  OH2           0.5762504651       -3.1220706569       -9.4450799323  CLST          54          1.0000000000
       161        54  TIP3  H1            1.3447389462       -3.4248377511       -9.9588706278  CLST          54          1.0000000000
       162        54  TIP3  H2            0.1228516000       -2.5481542383      -10.1284191065  CLST          54          1.0000000000
       163        55  TIP3  OH2           2.9323962645       -4.1067959566      -14.7409495069  CLST          55          1.0000000000
       164        55  TIP3  H1            3.0260398692       -4.9935210392      -14.3458424557  CLST          55          1.0000000000
       165        55  TIP3  H2            3.0662936246       -4.2099221066      -15.5759291614  CLST          55          1.0000000000
       166        56  TIP3  OH2          -9.9976335878       11.2950261039        5.8303480543  CLST          56          1.0000000000
       167        56  TIP3  H1          -10.0415942413       10.3476294173        6.0350207735  CLST          56          1.0000000000
       168        56  TIP3  H2          -10.1120195274       11.1650521726        4.7738928282  CLST          56          1.0000000000
       169        57  TIP3  OH2           1.6813670191      -13.4982883726        0.4297134715  CLST          57          1.0000000000
       170        57  TIP3  H1            1.8673177131      -12.6521850999        0.8526229459  CLST          57          1.0000000000
       171        57  TIP3  H2            2.4539856123      -13.4625465493       -0.1795333076  CLST          57          1.0000000000
       172        58  TIP3  OH2         -12.9359702886       10.6722920418        7.1698131633  CLST          58          1.0000000000
       173        58  TIP3  H1          -11.7846546755       11.5121857394        7.3836019894  CLST          58          1.0000000000
       174        58  TIP3  H2          -11.5872868807       11.0450261756        8.5400572080  CLST          58          1.0000000000
       175        59  TIP3  OH2         -11.6896321826       -2.5155561259        5.6540376286  CLST          59          1.0000000000
       176        59  TIP3  H1          -11.7988588395       -2.1425420636        6.5733020554  CLST          59          1.0000000000
       177        59  TIP3  H2          -11.7738042356       -1.6917953209        5.1164983107  CLST          59          1.0000000000
       178        60  TIP3  OH2           1.3855736484        9.5617180819        8.3726705329  CLST          60          1.0000000000
       179        60  TIP3  H1            0.6610052225        8.8959836199        8.1120203212  CLST          60          1.0000000000
       180        60  TIP3  H2            1.9529657086        8.8523156894        8.8272791942  CLST          60          1.0000000000
       181        61  TIP3  OH2           2.7139115083       -0.8954444996       -5.5702029949  CLST          61          1.0000000000
       182        61  TIP3  H1            3.2284197358       -1.7379148192       -5.4724090781  CLST          61          1.0000000000
       183        61  TIP3  H2            2.0182121120       -0.9943946458       -6.2404558985  CLST          61          1.0000000000
       184        62  TIP3  OH2           8.0028565061        8.3241852806       12.6743763445  CLST          62          1.0000000000
       185        62  TIP3  H1            7.8838882112        7.4188959580       12.3543766644  CLST          62          1.0000000000
       186        62  TIP3  H2            8.3103205304        8.7106773479       11.8444822172  CLST          62          1.0000000000
       187        63  TIP3  OH2           4.3240059681       -7.2173850770      -10.3143061808  CLST          63          1.0000000000
       188        63  TIP3  H1            3.4932612045       -7.0487692715      -10.7334745624  CLST          63          1.0000000000
       189        63  TIP3  H2            4.9043080730       -7.7103414220      -10.9706799333  CLST          63          1.0000000000
       190        64  TIP3  OH2          -2.3693878025       11.8497914224        5.3590738868  CLST          64          1.0000000000
       191        64  TIP3  H1           -2.2601365576       10.8570727215        5.2430564466  CLST          64          1.0000000000
       192        64  TIP3  H2           -1.7325689063       11.8712933787        6.1440118170  CLST          64          1.0000000000
       193        65  TIP3  OH2          10.8120215595       -4.2184724095       -5.4025113894  CLST          65          1.0000000000
       194        65  TIP3  H1           11.2180091462       -3.9610130286       -6.3082563184  CLST          65          1.0000000000
       195        65  TIP3  H2           10.8996829044       -3.2634124227       -5.0364452669  CLST          65          1.0000000000
       196        66  TIP3  OH2           6.2536042757       -9.9839779513        9.4170792763  CLST          66          1.0000000000
       197        66  TIP3  H1            5.5172434509      -10.0842723881        8.7450097483  CLST          66          1.0000000000
       198        66  TIP3  H2            6.5896638306       -9.1173849181        9.0575184376  CLST          66          1.0000000000
       199        67  TIP3  OH2         -12.2018855604       -6.7105130352       -4.0595676180  CLST          67          1.0000000000
       200        67  TIP3  H1          -11.3966456081       -6.3113198287       -4.3616868488  CLST          67          1.0000000000
       201        67  TIP3  H2          -12.3543101743       -7.4373592822       -4.6318196161  CLST          67          1.0000000000
       202        68  TIP3  OH2          -0.5228293476       -5.5052667436        5.3587946193  CLST          68          1.0000000000
       203        68  TIP3  H1            0.4693158303       -5.4412755129        5.5567982809  CLST          68          1.0000000000
       204        68  TIP3  H2           -0.8791594090       -5.4466840580        6.2573273699  CLST          68          1.0000000000
       205        69  TIP3  OH2           7.8902390196       11.4606675561       -8.6318179754  CLST          69          1.0000000000
       206        69  TIP3  H1            8.0427372314       11.1494259836       -9.5654700691  CLST          69          1.0000000000
       207        69  TIP3  H2            8.8689312259       11.4692344135       -8.3758191274  CLST          69          1.0000000000
       208        70  TIP3  OH2          -1.1203913580      -12.4919550569       -0.5411118005  CLST          70          1.0000000000
       209        70  TIP3  H1           -0.2143711366      -12.1277331204       -0.4846333042  CLST          70          1.0000000000
       210        70  TIP3  H2           -1.1979698333      -12.8435071787        0.3574360292  CLST          70          1.0000000000
       211        71  TIP3  OH2         -10.2956706523       -7.2909051099        1.9267761152  CLST          71          1.0000000000
       212        71  TIP3  H1          -11.0995844630       -6.8960010488        2.2649450898  CLST          71          1.0000000000
       213        71  TIP3  H2          -10.6462716348       -7.8572062282        1.1550303846  CLST          71          1.0000000000
       214        72  TIP3  OH2           0.0633554969        2.0319495996       -1.4334512559  CLST          72          1.0000000000
       215        72  TIP3  H1           -0.2560824924        1.1396799307       -1.6628601961  CLST          72          1.0000000000
       216        72  TIP3  H2            0.9331180651        1.9611467497       -1.8323659919  CLST          72          1.0000000000
       217        73  TIP3  OH2          -9.4332617610       12.8253146109        7.6838921165  CLST          73          1.0000000000
       218        73  TIP3  H1           -9.4545349192       12.3347635429        6.4784313799  CLST          73          1.0000000000
       219        73  TIP3  H2           -9.9669363749       13.2834548997        6.6431803525  CLST          73          1.0000000000
       220        74  TIP3  OH2           6.4586735474       -2.8948493396       -3.7636831803  CLST          74          1.0000000000
       221        74  TIP3  H1            6.5942644357       -3.8201647864       -4.0870275713  CLST          74          1.0000000000
       222        74  TIP3  H2            7.3826397335       -2.6064073292       -3.5481271113  CLST          74          1.0000000000
       223        75  TIP3  OH2           2.9311993338      -13.3683840543       -6.5776845456  CLST          75          1.0000000000
       224        75  TIP3  H1            3.0572789466      -12.4031371888       -6.3178921185  CLST          75          1.0000000000
       225        75  TIP3  H2            2.8907131888      -13.6909058462       -5.6052346172  CLST          75          1.0000000000
       226        76  TIP3  OH2           3.9706647113       -9.8248486292        1.2830158627  CLST          76          1.0000000000
       227        76  TIP3  H1            3.8439056684       -8.9695065287        1.6644292242  CLST          76          1.0000000000
       228        76  TIP3  H2            3.1093195637      -10.2432912915        1.5880047444  CLST          76          1.0000000000
       229        77  TIP3  OH2          10.3281748296       -8.4037577549       -2.6148363351  CLST          77          1.0000000000
       230        77  TIP3  H1            9.8175139042       -9.2275537322       -2.6545959519  CLST          77          1.0000000000
       231        77  TIP3  H2           10.2161222048       -8.1657824215       -3.5675281364  CLST          77          1.0000000000
       232        78  TIP3  OH2          10.5897098113       11.6690407222       -7.9209368333  CLST          78          1.0000000000
       233        78  TIP3  H1           11.9628961727       10.4730021451       -8.3367508926  CLST          78          1.0000000000
       234        78  TIP3  H2           11.0066873387       12.5228612712       -7.6196326282  CLST          78          1.0000000000
       235        79  TIP3  OH2          12.6711584902        0.5521085804        1.1985946656  CLST          79          1.0000000000
       236        79  TIP3  H1           13.0677191136        0.6313795000        2.0507731115  CLST          79          1.0000000000
       237        79  TIP3  H2           12.0004740696        1.2484576142        1.3625557193  CLST          79          1.0000000000
       238        80  TIP3  OH2          -7.4705695022        0.1046620890        6.6813811339  CLST          80          1.0000000000
       239        80  TIP3  H1           -7.4122613955        0.2992386896        5.7473595094  CLST          80          1.0000000000
       240        80  TIP3  H2           -6.4661583422       -0.1131316358        6.8650794985  CLST          80          1.0000000000
       241        81  TIP3  OH2          -7.5092414352      -10.8761200308        2.1794430895  CLST          81          1.0000000000
       242        81  TIP3  H1           -6.7056213115      -11.0027003458        1.6106736089  CLST          81          1.0000000000
       243        81  TIP3  H2           -7.0751941820      -11.0097942885        3.0668037601  CLST          81          1.0000000000
       244        82  TIP3  OH2          -1.5078505353      -10.0424429568       -6.6863924933  CLST          82          1.0000000000
       245        82  TIP3  H1           -2.4533158258       -9.9163222751       -6.5666060265  CLST          82          1.0000000000
       246        82  TIP3  H2           -1.2893217859      -10.7460571767       -6.0563137728  CLST          82          1.0000000000
       247        83  TIP3  OH2          12.3361903218       -8.6522303272        1.6105075186  CLST          83          1.0000000000
       248        83  TIP3  H1           12.5449825392       -7.9642656350        2.3057024752  CLST          83          1.0000000000
       249        83  TIP3  H2           11.3536317159       -8.4450041930        1.5872444634  CLST          83          1.0000000000
       250        84  TIP3  OH2          -3.8053801271       11.1768039769       -2.1093044230  CLST          84          1.0000000000
       251        84  TIP3  H1           -4.6832021265       10.9720834575       -2.5552238041  CLST          84          1.0000000000
       252        84  TIP3  H2           -3.8149431218       11.8850577136       -1.6501659903  CLST          84          1.0000000000
       253        85  TIP3  OH2           5.6052944979       -2.1984241183        0.2436511320  CLST          85          1.0000000000
       254        85  TIP3  H1            5.9333803304       -1.7038050459        1.0591154769  CLST          85          1.0000000000
       255        85  TIP3  H2            6.0326659746       -3.0502659995        0.4732301897  CLST          85          1.0000000000
       256        86  TIP3  OH2           6.5318950402       -8.6152924063        5.7940964854  CLST          86          1.0000000000
       257        86  TIP3  H1            5.8127961669       -8.7708391607        6.4853873240  CLST          86          1.0000000000
       258        86  TIP3  H2            6.4391385862       -7.6474445688        5.5943809452  CLST          86          1.0000000000
       259        87  TIP3  OH2          -1.3959376934       -3.7439377504       10.5677245451  CLST          87          1.0000000000
       260        87  TIP3  H1           -0.7269367312       -3.9664330550       11.2496726867  CLST          87          1.0000000000
       261        87  TIP3  H2           -2.1813739344       -4.3611190742       10.7789566048  CLST          87          1.0000000000
       262        88  TIP3  OH2          -0.8256726431        4.5397645584       -8.0446783976  CLST          88          1.0000000000
       263        88  TIP3  H1           -1.0815861072        3.5403657302       -7.9650715592  CLST          88          1.0000000000
       264        88  TIP3  H2           -1.7500325090        4.8284454499       -8.1691936139  CLST          88          1.0000000000
       265        89  TIP3  OH2           3.5396230011        0.7856505405      -11.6137755647  CLST          89          1.0000000000
       266        89  TIP3  H1            3.8958960150        1.4172975119      -11.9795503473  CLST          89          1.0000000000
       267        89  TIP3  H2            3.6914830416        0.1336273569      -12.3056098621  CLST          89          1.0000000000
       268        90  TIP3  OH2           5.3258606829       11.0994757955       -5.3551329831  CLST          90          1.0000000000
       269        90  TIP3  H1            4.5754282942       11.9884958981       -5.0352119674  CLST          90          1.0000000000
       270        90  TIP3  H2            5.4525919179       12.0445560492       -6.2751844592  CLST          90          1.0000000000
       271        91  TIP3  OH2           5.9562210587       -8.0019445339      -12.0701261961  CLST          91          1.0000000000
       272        91  TIP3  H1            6.2512651846       -8.9766659243      -12.1333342125  CLST          91          1.0000000000
       273        91  TIP3  H2            6.8716963026       -7.5974245087      -11.8985459832  CLST          91          1.0000000000
       274        92  TIP3  OH2           9.7981159155       11.4200792653        2.5993104862  CLST          92          1.0000000000
       275        92  TIP3  H1           10.3349125260       11.5985904109        3.4528606753  CLST          92          1.0000000000
       276        92  TIP3  H2            9.5280653694       12.3217311783        2.4503511943  CLST          92          1.0000000000
       277        93  TIP3  OH2          -8.7592089576        7.0932662681        2.7459678430  CLST          93          1.0000000000
       278        93  TIP3  H1           -8.3192687924        7.8741027072        2.3387508254  CLST          93          1.0000000000
       279        93  TIP3  H2           -8.0162662752        6.5750543827        3.1578814163  CLST          93          1.0000000000
       280        94  TIP3  OH2         -14.4385204047        6.6948441681        6.8496000478  CLST          94          1.0000000000
       281        94  TIP3  H1          -13.5997825523        7.1266081330        6.4789298660  CLST          94          1.0000000000
       282        94  TIP3  H2          -14.7638875996        6.3983942022        5.9987640631  CLST          94          1.0000000000
       283        95  TIP3  OH2           9.7982576563        5.7800122129       -1.8095334082  CLST          95          1.0000000000
       284        95  TIP3  H1            9.8652236229        6.0862800748       -0.8674326967  CLST          95          1.0000000000
       285        95  TIP3  H2           10.3172008572        4.9222670607       -1.7134102302  CLST          95          1.0000000000
       286        96  TIP3  OH2           9.5955760258      -11.1419677810       11.3010707937  CLST          96          1.0000000000
       287        96  TIP3  H1           10.3839203183      -11.3286735965       10.7391445765  CLST          96          1.0000000000
       288        96  TIP3  H2            9.2082597569      -12.0410961580       11.1857832605  CLST          96          1.0000000000
       289        97  TIP3  OH2          -7.7758253161        6.9413766976        8.4979982646  CLST          97          1.0000000000
       290        97  TIP3  H1           -7.4404994671        6.0507160674        8.7700999713  CLST          97          1.0000000000
       291        97  TIP3  H2           -8.7533040122        6.7134395155        8.4370833238  CLST          97          1.0000000000
       292        98  TIP3  OH2           6.0076363868        0.5233945934       -3.4380266651  CLST          98          1.0000000000
       293        98  TIP3  H1            6.7769997236        0.2480334376       -2.8107460701  CLST          98          1.0000000000
       294        98  TIP3  H2            5.4097553465       -0.1638295742       -3.0186392580  CLST          98          1.0000000000
       295        99  TIP3  OH2          -6.9191971435      -11.4833958608        4.8624622414  CLST          99          1.0000000000
       296        99  TIP3  H1           -7.4189373970      -11.4050002456        5.6762056151  CLST          99          1.0000000000
       297        99  TIP3  H2           -6.0930387905      -11.9114829772        5.2365580062  CLST          99          1.0000000000
       298       100  TIP3  OH2           2.3020153306        0.4873777191       -9.1785417465  CLST         100          1.0000000000
       299       100  TIP3  H1            2.8068861579        0.5547116776      -10.0379001839  CLST         100          1.0000000000
       300       100  TIP3  H2            2.1208377603        1.3621606598       -9.1392247302  CLST         100          1.0000000000
       301       101  TIP3  OH2          12.7353872310       -6.8909842493        3.8813904772  CLST         101          1.0000000000
       302       101  TIP3  H1           12.7951168233       -7.3360522176        4.8090633916  CLST         101          1.0000000000
       303       101  TIP3  H2           13.4281411165       -6.4190216492        3.7511897319  CLST         101          1.0000000000
       304       102  TIP3  OH2         -12.0874105109       10.4432089782        1.4374507140  CLST         102          1.0000000000
       305       102  TIP3  H1          -12.9359851143       10.3305893018        2.1554282649  CLST         102          1.0000000000
       306       102  TIP3  H2          -12.3351925397        9.5199757560        1.1583558197  CLST         102          1.0000000000
       307       103  TIP3  OH2          -0.6247365774       -9.3562384172        7.7362454635  CLST         103          1.0000000000
       308       103  TIP3  H1            0.0374527177       -9.5373476877        8.4630976852  CLST         103          1.0000000000
       309       103  TIP3  H2           -1.3015278204      -10.0350492945        8.0377474304  CLST         103          1.0000000000
       310       104  TIP3  OH2          -4.3213220494      -12.1162438000        9.9952587488  CLST         104          1.0000000000
       311       104  TIP3  H1           -5.0282321847      -11.8023573932       10.6701174105  CLST         104          1.0000000000
       312       104  TIP3  H2           -5.0071905166      -12.3965323862        9.3309124458  CLST         104          1.0000000000
       313       105  TIP3  OH2          -5.2410297400       10.5576214166      -11.4317735883  CLST         105          1.0000000000
       314       105  TIP3  H1           -4.7277297320       11.0659982194      -12.1208120868  CLST         105          1.0000000000
       315       105  TIP3  H2           -5.8930844601       10.0826371568      -12.0283020607  CLST         105          1.0000000000
       316       106  TIP3  OH2           7.4815712190       -8.1316220008       -1.3609707242  CLST         106          1.0000000000
       317       106  TIP3  H1            8.3745611734       -7.8104485520       -1.5782944931  CLST         106          1.0000000000
       318       106  TIP3  H2            7.6560516189       -9.0988495743       -1.4907943611  CLST         106          1.0000000000
       319       107  TIP3  OH2          -8.2528249907       -4.7800537580        5.1746671719  CLST         107          1.0000000000
       320       107  TIP3  H1           -8.9727291508       -4.4616489030        4.6194528179  CLST         107          1.0000000000
       321       107  TIP3  H2           -7.4532292146       -4.2893727284        4.8817741116  CLST         107          1.0000000000
       322       108  TIP3  OH2         -10.3641700076        2.0556717986        9.4487157487  CLST         108          1.0000000000
       323       108  TIP3  H1           -9.4573360959        1.7503471405        9.2957592692  CLST         108          1.0000000000
       324       108  TIP3  H2          -10.7900873613        1.1892195773        9.8165064069  CLST         108          1.0000000000
       325       109  TIP3  OH2           2.5060130841        7.0842182295        8.7098608256  CLST         109          1.0000000000
       326       109  TIP3  H1            1.7976273493        6.7081936190        9.2598847627  CLST         109          1.0000000000
       327       109  TIP3  H2            3.1690901863        6.2951886320        8.6853458491  CLST         109          1.0000000000
       328       110  TIP3  OH2           1.7355687964       12.4714713579      -11.1789993698  CLST         110          1.0000000000
       329       110  TIP3  H1            1.7673126425       13.3911811746      -11.2440155853  CLST         110          1.0000000000
       330       110  TIP3  H2            1.8505771022       12.2767702130      -10.2042358347  CLST         110          1.0000000000
       331       111  TIP3  OH2          11.8294094030      -11.8738827971        9.4866191387  CLST         111          1.0000000000
       332       111  TIP3  H1           12.7215346757      -12.1076032831        9.4431003509  CLST         111          1.0000000000
       333       111  TIP3  H2           11.3774548295      -12.4729518814        8.8525410320  CLST         111          1.0000000000
       334       112  TIP3  OH2           6.2723020395       -0.3193490793        1.8691263454  CLST         112          1.0000000000
       335       112  TIP3  H1            6.7325477861        0.4918373951        1.6843329120  CLST         112          1.0000000000
       336       112  TIP3  H2            6.1944607973       -0.3420137624        2.8612492359  CLST         112          1.0000000000
       337       113  TIP3  OH2         -12.9506329087        1.0047009333        0.0551840131  CLST         113          1.0000000000
       338       113  TIP3  H1          -13.6009259175        0.2320376920       -0.1118209184  CLST         113          1.0000000000
       339       113  TIP3  H2          -12.3563185840        0.8550249957       -0.6997782450  CLST         113          1.0000000000
       340       114  TIP3  OH2         -13.7543569093        3.7823887864       -0.3732382608  CLST         114          1.0000000000
       341       114  TIP3  H1          -13.6977089702        2.8028161365       -0.2465183360  CLST         114          1.0000000000
       342       114  TIP3  H2          -13.4398275594        3.7974151619       -1.3042839742  CLST         114          1.0000000000
       343       115  TIP3  OH2          -8.9677741202        0.2884434151      -10.7560629095  CLST         115          1.0000000000
       344       115  TIP3  H1           -8.1601058357        0.5303262378      -11.2879893350  CLST         115          1.0000000000
       345       115  TIP3  H2           -9.4196047364        1.1438454047      -10.7632179045  CLST         115          1.0000000000
       346       116  TIP3  OH2           6.8521786909       -5.8006596138        2.1651330009  CLST         116          1.0000000000
       347       116  TIP3  H1            7.3284903574       -6.1899555810        1.4134014318  CLST         116          1.0000000000
       348       116  TIP3  H2            7.2385197631       -4.9080805520        2.2054664574  CLST         116          1.0000000000
       349       117  TIP3  OH2          -0.5379995645        0.0388489456       12.5608657465  CLST         117          1.0000000000
       350       117  TIP3  H1           -0.1070294521       -0.8214448769       12.5482434629  CLST         117          1.0000000000
       351       117  TIP3  H2            0.0602717451        0.4063409916       13.2483156207  CLST         117          1.0000000000
       352       118  TIP3  OH2           0.1506387594       -9.6881160006        5.1314997168  CLST         118          1.0000000000
       353       118  TIP3  H1           -0.2184165996       -9.3992448324        6.0053905231  CLST         118          1.0000000000
       354       118  TIP3  H2           -0.1572264131       -9.0086128066        4.4893597846  CLST         118          1.0000000000
       355       119  TIP3  OH2          -9.3268312159      -10.4502139960       -8.7669102647  CLST         119          1.0000000000
       356       119  TIP3  H1           -9.4708852970      -10.8629888950       -9.6932668057  CLST         119          1.0000000000
       357       119  TIP3  H2           -8.9183081012       -9.6079192631       -9.0569699302  CLST         119          1.0000000000
       358       120  TIP3  OH2           9.5966507229       -7.9100153124        1.3674918493  CLST         120          1.0000000000
       359       120  TIP3  H1            8.7796304313       -8.4429774263        1.4357668776  CLST         120          1.0000000000
       360       120  TIP3  H2            9.3436839877       -7.2648914292        0.6540993335  CLST         120          1.0000000000
       361       121  TIP3  OH2          -5.5143862003       -0.2373721380       -7.9930300350  CLST         121          1.0000000000
       362       121  TIP3  H1           -5.4925778480       -0.0474132916       -8.9291258853  CLST         121          1.0000000000
       363       121  TIP3  H2           -4.7994433295       -0.9910872138       -7.9509518296  CLST         121          1.0000000000
       364       122  TIP3  OH2          10.4154160041       12.2232549946        5.0360377743  CLST         122          1.0000000000
       365       122  TIP3  H1            9.4887171757       12.6010903259        5.2740828170  CLST         122          1.0000000000
       366       122  TIP3  H2           10.8769343992       12.6243262114        5.7390022887  CLST         122          1.0000000000
       367       123  TIP3  OH2          -7.6154906315       -5.5348590419      -11.1643456293  CLST         123          1.0000000000
       368       123  TIP3  H1           -6.9232356618       -6.1592404310      -11.4491320044  CLST         123          1.0000000000
       369       123  TIP3  H2           -7.2448138256       -5.3715701156      -10.2471028010  CLST         123          1.0000000000
       370       124  TIP3  OH2          -6.2159649567       -8.6424736092      -10.7896258152  CLST         124          1.0000000000
       371       124  TIP3  H1           -5.5067237933       -9.0267856860      -10.2082096720  CLST         124          1.0000000000
       372       124  TIP3  H2           -6.8266061033       -8.3256641636      -10.0397971926  CLST         124          1.0000000000
       373       125  TIP3  OH2         -13.6247591559        4.3013911372        8.2120066336  CLST         125          1.0000000000
       374       125  TIP3  H1          -13.3580418817        3.7126473748        7.5051788976  CLST         125          1.0000000000
       375       125  TIP3  H2          -13.8366590754        5.1766693935        7.5860646172  CLST         125          1.0000000000
       376       126  TIP3  OH2          -6.9927376995      -10.7449715514      -12.1569382969  CLST         126          1.0000000000
       377       126  TIP3  H1           -6.1299835714      -11.1318770681      -11.8766309297  CLST         126          1.0000000000
       378       126  TIP3  H2           -6.8616611854       -9.8682019120      -11.7154783869  CLST         126          1.0000000000
       379       127  TIP3  OH2          -7.5590385027      -11.5508204869       -7.1162214919  CLST         127          1.0000000000
       380       127  TIP3  H1           -8.0327783059      -12.3343893293       -6.9250527458  CLST         127          1.0000000000
       381       127  TIP3  H2           -8.1592206758      -11.2044768118       -7.7821615688  CLST         127          1.0000000000
       382       128  TIP3  OH2          10.0309992476        0.8945478311       -2.4796828601  CLST         128          1.0000000000
       383       128  TIP3  H1            9.2059072876        0.4629644822       -2.1721857082  CLST         128          1.0000000000
       384       128  TIP3  H2            9.7357277374        1.6919532107       -2.9906669554  CLST         128          1.0000000000
       385       129  TIP3  OH2          -7.8311808780        9.4534395091        1.0268107312  CLST         129          1.0000000000
       386       129  TIP3  H1           -7.0423509400        9.9072083509        1.4668150676  CLST         129          1.0000000000
       387       129  TIP3  H2           -7.2447772905        8.7698051383        0.5743183303  CLST         129          1.0000000000
       388       130  TIP3  OH2          -4.2383360574        4.1102399532        9.8271388896  CLST         130          1.0000000000
       389       130  TIP3  H1           -3.5763703923        4.7838220491        9.7533128075  CLST         130          1.0000000000
       390       130  TIP3  H2           -4.1104762694        3.7151219421       10.7289142385  CLST         130          1.0000000000
       391       131  TIP3  OH2           7.8637727733       -3.6470742422       -9.9000627594  CLST         131          1.0000000000
       392       131  TIP3  H1            7.8367838500       -2.9180254515       -9.1666033503  CLST         131          1.0000000000
       393       131  TIP3  H2            6.8409430556       -3.8635439628       -9.8449274375  CLST         131          1.0000000000
       394       132  TIP3  OH2         -11.3516613923       11.5666410093       12.4706319956  CLST         132          1.0000000000
       395       132  TIP3  H1          -10.7514520623       12.2046378480       11.7537649879  CLST         132          1.0000000000
       396       132  TIP3  H2          -12.0029451956       12.0684449476       13.0710111204  CLST         132          1.0000000000
       397       133  TIP3  OH2          10.5451588213        9.2694322065        8.6132957620  CLST         133          1.0000000000
       398       133  TIP3  H1           10.3549085009        9.4341617227        9.5639892238  CLST         133          1.0000000000
       399       133  TIP3  H2           11.5267686581        9.2765599929        8.7187261424  CLST         133          1.0000000000
       400       134  TIP3  OH2          -7.7159018701        6.0562932916       -6.0868736694  CLST         134          1.0000000000
       401       134  TIP3  H1           -8.6971262096        6.0979437325       -6.0746374886  CLST         134          1.0000000000
       402       134  TIP3  H2           -7.5317991472        6.0554264234       -5.1050860795  CLST         134          1.0000000000
       403       135  TIP3  OH2          10.7708114794      -11.1584812243      -12.7846361903  CLST         135          1.0000000000
       404       135  TIP3  H1           10.9405273916       -9.8851613559      -12.0583203040  CLST         135          1.0000000000
       405       135  TIP3  H2           11.1802275545      -11.0847074774      -13.6661591102  CLST         135          1.0000000000
       406       136  TIP3  OH2          -4.1965821388        1.8768087171       -7.1397203589  CLST         136          1.0000000000
       407       136  TIP3  H1           -4.7324065264        1.0909044897       -7.4016945595  CLST         136          1.0000000000
       408       136  TIP3  H2           -4.7803933455        2.5976941768       -6.9686881236  CLST         136          1.0000000000
       409       137  TIP3  OH2          13.0746827991       10.2946619572        9.0101474624  CLST         137          1.0000000000
       410       137  TIP3  H1           13.3335697040       10.3087344572        9.9373665282  CLST         137          1.0000000000
       411       137  TIP3  H2           13.5785084346        9.5544422433        8.4852628392  CLST         137          1.0000000000
       412       138  TIP3  OH2          -1.0260076029       -9.9881506104        1.6943793923  CLST         138          1.0000000000
       413       138  TIP3  H1           -1.1197396551       -9.4844027618        0.8883674319  CLST         138          1.0000000000
       414       138  TIP3  H2           -1.2576455134       -9.2799690189        2.3334751967  CLST         138          1.0000000000
       415       139  TIP3  OH2          -9.5618896369      -10.7072270095        4.5296981770  CLST         139          1.0000000000
       416       139  TIP3  H1          -10.2996134110      -10.8141358979        3.8803448283  CLST         139          1.0000000000
       417       139  TIP3  H2           -8.8763646896      -11.2965585947        4.1026780804  CLST         139          1.0000000000
       418       140  TIP3  OH2          -7.0396804477        3.4658795216       -0.3059051773  CLST         140          1.0000000000
       419       140  TIP3  H1           -6.1793248645        3.9275482479       -0.1936761122  CLST         140          1.0000000000
       420       140  TIP3  H2           -7.6545487248        4.2037928509       -0.4469259821  CLST         140          1.0000000000
       421       141  TIP3  OH2           2.1096886679       -4.3880874214       -3.4388166425  CLST         141          1.0000000000
       422       141  TIP3  H1            1.9087907027       -3.4598058160       -3.2249362642  CLST         141          1.0000000000
       423       141  TIP3  H2            2.7470466987       -4.1018129820       -4.1814801812  CLST         141          1.0000000000
       424       142  TIP3  OH2         -11.8010867812       -0.1093175309        4.8008408045  CLST         142          1.0000000000
       425       142  TIP3  H1          -11.5371052502        0.6301858117        5.3904836318  CLST         142          1.0000000000
       426       142  TIP3  H2          -12.4567319380        0.4010557604        4.2404228772  CLST         142          1.0000000000
       427       143  TIP3  OH2           9.4009612313       -5.6391405640       -8.3477864379  CLST         143          1.0000000000
       428       143  TIP3  H1            9.7703408843       -4.8815337167       -8.8596691825  CLST         143          1.0000000000
       429       143  TIP3  H2           10.0419673299       -6.3657469789       -8.5507982830  CLST         143          1.0000000000
       430       144  TIP3  OH2           3.4571019229       -2.7728389716        9.1099421377  CLST         144          1.0000000000
       431       144  TIP3  H1            2.5644734637       -2.4378115578        9.4366246874  CLST         144          1.0000000000
       432       144  TIP3  H2            3.7113467891       -1.9346777948        8.6187808368  CLST         144          1.0000000000
       433       145  TIP3  OH2         -10.3008312765       13.5437810197        2.9878723744  CLST         145          1.0000000000
       434       145  TIP3  H1          -10.4942181046       13.2740272871        1.9963880532  CLST         145          1.0000000000
       435       145  TIP3  H2          -10.2733311807       12.4318278702        3.1848173815  CLST         145          1.0000000000
       436       146  TIP3  OH2           9.1460576367        2.7207702030       -4.3609853528  CLST         146          1.0000000000
       437       146  TIP3  H1            9.1128989783        4.2890786125       -4.3836207162  CLST         146          1.0000000000
       438       146  TIP3  H2            7.7482793438        2.4477443130       -5.0477506873  CLST         146          1.0000000000
       439       147  TIP3  OH2         -10.9621422444       -0.2399677082       -4.0614384499  CLST         147          1.0000000000
       440       147  TIP3  H1          -10.0785488191       -0.5582480413       -4.3395181669  CLST         147          1.0000000000
       441       147  TIP3  H2          -11.4344270698       -0.4552560802       -4.9225842851  CLST         147          1.0000000000
       442       148  TIP3  OH2          -7.9447650683        1.3938235187        8.8387684903  CLST         148          1.0000000000
       443       148  TIP3  H1           -7.8657428121        0.9869479359        7.9292716119  CLST         148          1.0000000000
       444       148  TIP3  H2           -6.9829114319        1.7165426902        8.8187293264  CLST         148          1.0000000000
       445       149  TIP3  OH2           8.6584148233       -2.9037662023        0.7743513600  CLST         149          1.0000000000
       446       149  TIP3  H1            9.2202289710       -2.0857608370        0.6628401392  CLST         149          1.0000000000
       447       149  TIP3  H2            8.3466326889       -2.8280050107        1.6593950202  CLST         149          1.0000000000
       448       150  TIP3  OH2          -2.0729462931      -11.3502608818        8.6520190267  CLST         150          1.0000000000
       449       150  TIP3  H1           -2.9115789391      -11.6388724080        9.1026535430  CLST         150          1.0000000000
       450       150  TIP3  H2           -1.3931415464      -11.7972036609        9.2416470257  CLST         150          1.0000000000
       451       151  TIP3  OH2          -9.2634004255       -6.6824784607       -4.9152894373  CLST         151          1.0000000000
       452       151  TIP3  H1           -7.6394127675       -6.8512887720       -4.9005914419  CLST         151          1.0000000000
       453       151  TIP3  H2           -8.6994295868       -7.7504522453       -5.1163036997  CLST         151          1.0000000000
       454       152  TIP3  OH2           3.8514489296       -2.2148099776        4.9495141938  CLST         152          1.0000000000
       455       152  TIP3  H1            4.4379462164       -2.9663738038        5.2880050650  CLST         152          1.0000000000
       456       152  TIP3  H2            3.5814677347       -2.6563357144        4.1270184810  CLST         152          1.0000000000
       457       153  TIP3  OH2          -2.8811032228        4.7547985207      -14.3946213424  CLST         153          1.0000000000
       458       153  TIP3  H1           -2.0049169503        5.0770091031      -14.6208296875  CLST         153          1.0000000000
       459       153  TIP3  H2           -2.6809462469        4.3095204914      -13.5488215211  CLST         153          1.0000000000
       460       154  TIP3  OH2           4.4682715080       -7.0820163223        2.2091559713  CLST         154          1.0000000000
       461       154  TIP3  H1            5.3733023309       -6.6774843729        2.2441319052  CLST         154          1.0000000000
       462       154  TIP3  H2            4.1195352385       -6.6225632298        1.4153106270  CLST         154          1.0000000000
       463       155  TIP3  OH2           9.4271238557       -2.6819506105       10.2766880016  CLST         155          1.0000000000
       464       155  TIP3  H1            8.7811504864       -3.0581860597        9.6179435882  CLST         155          1.0000000000
       465       155  TIP3  H2            9.5837771135       -3.5251118801       10.6795928341  CLST         155          1.0000000000
       466       156  TIP3  OH2          -2.1057589423       11.3604253477       11.6884941083  CLST         156          1.0000000000
       467       156  TIP3  H1           -2.8080466606       11.9624850447       12.0644807763  CLST         156          1.0000000000
       468       156  TIP3  H2           -2.6646904932       10.5743334694       11.5544959174  CLST         156          1.0000000000
       469       157  TIP3  OH2           3.9356100666       -0.6452352616        7.2811475381  CLST         157          1.0000000000
       470       157  TIP3  H1            4.9117513813       -0.4591543587        7.4719307606  CLST         157          1.0000000000
       471       157  TIP3  H2            3.8949314968       -1.3844049871        6.6107464998  CLST         157          1.0000000000
       472       158  TIP3  OH2          10.6802036327        8.9852903272       13.2048579662  CLST         158          1.0000000000
       473       158  TIP3  H1            9.9393657322        8.4855802469       13.6129037808  CLST         158          1.0000000000
       474       158  TIP3  H2           10.0937297508        9.6940414858       12.8666479612  CLST         158          1.0000000000
       475       159  TIP3  OH2           0.3261422649      -12.1117148599        4.3145040847  CLST         159          1.0000000000
       476       159  TIP3  H1           -0.4968602919      -12.2717626354        4.9077231269  CLST         159          1.0000000000
       477       159  TIP3  H2            0.4605796442      -11.1783512623        4.7339784863  CLST         159          1.0000000000
       478       160  TIP3  OH2           7.2811949769       -3.5654779335        8.4755987111  CLST         160          1.0000000000
       479       160  TIP3  H1            6.8497717613       -3.7339496711        7.5844392982  CLST         160          1.0000000000
       480       160  TIP3  H2            7.0543656309       -2.6111372068        8.5798603119  CLST         160          1.0000000000
       481       161  TIP3  OH2          -2.2567039909       -2.2532154206        7.7694441557  CLST         161          1.0000000000
       482       161  TIP3  H1           -1.9735400247       -1.6990026901        8.5566105614  CLST         161          1.0000000000
       483       161  TIP3  H2           -3.1303550485       -2.5368926650        8.1793536916  CLST         161          1.0000000000
       484       162  TIP3  OH2          -0.6799612087        3.4762242322      -10.6884622064  CLST         162          1.0000000000
       485       162  TIP3  H1           -0.4472419420        4.0221341841      -11.4216338266  CLST         162          1.0000000000
       486       162  TIP3  H2           -0.4101575478        4.1299323940       -9.9507480834  CLST         162          1.0000000000
       487       163  TIP3  OH2         -10.1311296751        9.1191758691       11.2957456651  CLST         163          1.0000000000
       488       163  TIP3  H1          -10.6534383171        8.2803049259       11.3079337335  CLST         163          1.0000000000
       489       163  TIP3  H2          -10.5896911518        9.7175235342       11.8633969010  CLST         163          1.0000000000
       490       164  TIP3  OH2           4.0336346498      -10.5252996435       12.8712603105  CLST         164          1.0000000000
       491       164  TIP3  H1            4.5576046055       -9.9512117501       12.2959825183  CLST         164          1.0000000000
       492       164  TIP3  H2            4.8261138355      -11.1846220018       12.8366874560  CLST         164          1.0000000000
       493       165  TIP3  OH2         -11.8340719966       -5.5318852044        3.5689716468  CLST         165          1.0000000000
       494       165  TIP3  H1          -11.4828398102       -5.6287437339        4.4977633489  CLST         165          1.0000000000
       495       165  TIP3  H2          -12.6914623238       -5.3010885169        3.7947278158  CLST         165          1.0000000000
       496       166  TIP3  OH2          -1.5933637717       -6.3328023421      -10.3272468954  CLST         166          1.0000000000
       497       166  TIP3  H1           -0.7074473123       -6.5065791387      -10.5970509342  CLST         166          1.0000000000
       498       166  TIP3  H2           -2.0537990548       -7.1387213225      -10.2315419193  CLST         166          1.0000000000
       499       167  TIP3  OH2           8.0958372186       10.6659622909       -0.7342700345  CLST         167          1.0000000000
       500       167  TIP3  H1            8.6005105680       10.1364664533       -0.0009332327  CLST         167          1.0000000000
       501       167  TIP3  H2            8.5118508017       10.1193156141       -1.4481217010  CLST         167          1.0000000000
       502       168  TIP3  OH2          -0.8881416585      -13.5196507287        2.0372454410  CLST         168          1.0000000000
       503       168  TIP3  H1           -0.4282192426      -13.0768433723        2.8107153067  CLST         168          1.0000000000
       504       168  TIP3  H2           -0.0839706700      -13.9353516443        1.6393326127  CLST         168          1.0000000000
       505       169  TIP3  OH2           5.0507200941        3.9604839009        3.2432853652  CLST         169          1.0000000000
       506       169  TIP3  H1            4.1825892612        3.5356536843        3.3606175646  CLST         169          1.0000000000
       507       169  TIP3  H2            4.9876219894        4.4414539854        2.3522084591  CLST         169          1.0000000000
       508       170  TIP3  OH2          -1.1882065531        4.2392056617        1.4581742233  CLST         170          1.0000000000
       509       170  TIP3  H1           -1.9181918801        4.8718990575        1.3370360413  CLST         170          1.0000000000
       510       170  TIP3  H2           -1.6142932754        3.3586421562        1.3601977658  CLST         170          1.0000000000
       511       171  TIP3  OH2          -3.0046263898        1.2797796056        7.3475247383  CLST         171          1.0000000000
       512       171  TIP3  H1           -2.5546813861        0.7999826440        6.5955517085  CLST         171          1.0000000000
       513       171  TIP3  H2           -2.1823978568        1.6371947694        7.7509101121  CLST         171          1.0000000000
       514       172  TIP3  OH2          -6.4607331370      -13.1427930741        8.2204887196  CLST         172          1.0000000000
       515       172  TIP3  H1           -6.5570341753      -14.0786325421        8.0294370071  CLST         172          1.0000000000
       516       172  TIP3  H2           -5.8951891084      -12.9341377905        7.4086704228  CLST         172          1.0000000000
       517       173  TIP3  OH2          10.5114847422      -12.7678373483        1.8975198353  CLST         173          1.0000000000
       518       173  TIP3  H1           10.8833472835      -12.7252026126        0.9465044811  CLST         173          1.0000000000
       519       173  TIP3  H2            9.7882614079      -12.2368871243        1.7324047344  CLST         173          1.0000000000
       520       174  TIP3  OH2          -0.0611564269        5.5691388863        9.9137015441  CLST         174          1.0000000000
       521       174  TIP3  H1           -0.4642353261        4.8204846904       10.4136888395  CLST         174          1.0000000000
       522       174  TIP3  H2           -0.8518040409        6.1680885984        9.8877770045  CLST         174          1.0000000000
       523       175  TIP3  OH2          -5.7014774132       10.3553048685       -3.6617898987  CLST         175          1.0000000000
       524       175  TIP3  H1           -5.1361950829       10.1073307342       -4.3860591771  CLST         175          1.0000000000
       525       175  TIP3  H2           -6.5935343837       10.1054135906       -4.0623711460  CLST         175          1.0000000000
       526       176  TIP3  OH2           6.7644934281        9.2809710838       -7.7573012513  CLST         176          1.0000000000
       527       176  TIP3  H1            7.2811696583       10.1189447231       -8.0514560934  CLST         176          1.0000000000
       528       176  TIP3  H2            6.2642891312        9.7097768700       -6.9912934384  CLST         176          1.0000000000
       529       177  TIP3  OH2          -3.7511834050      -11.2734713469       -1.5251689405  CLST         177          1.0000000000
       530       177  TIP3  H1           -3.0171011947      -11.7151306138       -1.0059871064  CLST         177          1.0000000000
       531       177  TIP3  H2           -4.2963752751      -11.0681355602       -0.7185557975  CLST         177          1.0000000000
       532       178  TIP3  OH2          10.8251124758       -9.0334633742      -11.4411497719  CLST         178          1.0000000000
       533       178  TIP3  H1           10.9362720996       -8.7625751088      -10.4289916848  CLST         178          1.0000000000
       534       178  TIP3  H2           10.7458810741       -8.0387314585      -11.7226331980  CLST         178          1.0000000000
       535       179  TIP3  OH2           6.5131533697       -0.8658372400        8.4041843662  CLST         179          1.0000000000
       536       179  TIP3  H1            6.2191232439       -0.1745392273        9.0883162389  CLST         179          1.0000000000
       537       179  TIP3  H2            7.1225456797       -0.2800628199        7.9384743276  CLST         179          1.0000000000
       538       180  TIP3  OH2          -7.6494352600        8.1942552643        5.9086256723  CLST         180          1.0000000000
       539       180  TIP3  H1           -7.5753447346        8.2391235267        6.8692902628  CLST         180          1.0000000000
       540       180  TIP3  H2           -8.6174900020        8.1896217229        5.8721914290  CLST         180          1.0000000000
       541       181  TIP3  OH2           6.0004186332      -13.0076736003       -0.3567935929  CLST         181          1.0000000000
       542       181  TIP3  H1            6.8016707163      -13.1619806347       -0.8298023289  CLST         181          1.0000000000
       543       181  TIP3  H2            6.3872795904      -13.0425592856        0.5732322239  CLST         181          1.0000000000
       544       182  TIP3  OH2          -1.6898737171       10.6080355816      -10.5721856237  CLST         182          1.0000000000
       545       182  TIP3  H1           -0.9191408257       11.0507914365      -10.1567873024  CLST         182          1.0000000000
       546       182  TIP3  H2           -2.3985993877       10.6721532766       -9.8962867043  CLST         182          1.0000000000
       547       183  TIP3  OH2          -5.2413144352        3.7938940782      -12.3167048476  CLST         183          1.0000000000
       548       183  TIP3  H1           -4.9948644314        3.6859106584      -11.3607338868  CLST         183          1.0000000000
       549       183  TIP3  H2           -6.1088314558        3.3185902406      -12.2958972366  CLST         183          1.0000000000
       550       184  TIP3  OH2           2.7263833337        8.2901066678       -2.3149086443  CLST         184          1.0000000000
       551       184  TIP3  H1            3.0968771026        7.6759246817       -1.6125221441  CLST         184          1.0000000000
       552       184  TIP3  H2            1.7779577901        7.9828764284       -2.2889609557  CLST         184          1.0000000000
       553       185  TIP3  OH2           7.3916968586        4.8007536475       12.3819021286  CLST         185          1.0000000000
       554       185  TIP3  H1            7.6948363011        3.8510028089       12.3184224950  CLST         185          1.0000000000
       555       185  TIP3  H2            6.8387509076        4.8165883728       13.1612191070  CLST         185          1.0000000000
       556       186  TIP3  OH2           3.5918961264        5.8640801413       -5.3275787657  CLST         186          1.0000000000
       557       186  TIP3  H1            3.7376023718        6.8482333294       -5.2411500990  CLST         186          1.0000000000
       558       186  TIP3  H2            3.7445035458        5.6487360819       -6.4168454068  CLST         186          1.0000000000
       559       187  TIP3  OH2           4.1421677654        1.5499632508       -5.5378072841  CLST         187          1.0000000000
       560       187  TIP3  H1            4.3267572206        1.4281106656       -4.5583629764  CLST         187          1.0000000000
       561       187  TIP3  H2            3.7169192199        0.6722062435       -5.7493344813  CLST         187          1.0000000000
       562       188  TIP3  OH2          -4.5031468363       -1.4901756842        4.7723803072  CLST         188          1.0000000000
       563       188  TIP3  H1           -4.5698982025       -0.6941144570        4.1861919602  CLST         188          1.0000000000
       564       188  TIP3  H2           -4.8271958240       -1.0387560838        5.5958216878  CLST         188          1.0000000000
       565       189  TIP3  OH2          -5.0821146982        3.5144755834      -15.0097238421  CLST         189          1.0000000000
       566       189  TIP3  H1           -5.0638808907        3.3329067955      -14.0299468142  CLST         189          1.0000000000
       567       189  TIP3  H2           -4.3249213092        4.1507880547      -14.8753745766  CLST         189          1.0000000000
       568       190  TIP3  OH2           6.9459270957       -5.6993340519        5.2103610321  CLST         190          1.0000000000
       569       190  TIP3  H1            6.8449773873       -5.6106599642        4.2173964014  CLST         190          1.0000000000
       570       190  TIP3  H2            7.8687810106       -6.0047539537        5.0539867728  CLST         190          1.0000000000
       571       191  TIP3  OH2         -10.8202139345       -4.9243938276       -6.5940096098  CLST         191          1.0000000000
       572       191  TIP3  H1          -10.0745266188       -4.6832302699       -7.2102136847  CLST         191          1.0000000000
       573       191  TIP3  H2          -10.2652497839       -5.5306261915       -6.0388109686  CLST         191          1.0000000000
       574       192  TIP3  OH2           9.0634977815       14.2481555829        1.9326175882  CLST         192          1.0000000000
       575       192  TIP3  H1            8.5501631756       14.4278797798        2.7424382913  CLST         192          1.0000000000
       576       192  TIP3  H2            9.8150940430       14.9086548048        1.8876995092  CLST         192          1.0000000000
       577       193  TIP3  OH2           6.0271769555      -12.1379935407       11.6217553881  CLST         193          1.0000000000
       578       193  TIP3  H1            6.8021677965      -12.7298816685       11.6050579946  CLST         193          1.0000000000
       579       193  TIP3  H2            6.2638348430      -11.6031461280       10.8253979886  CLST         193          1.0000000000
       580       194  TIP3  OH2          -6.1288661980       -4.4417422241       11.2132564113  CLST         194          1.0000000000
       581       194  TIP3  H1           -6.6196905798       -4.8000988184       11.9619945189  CLST         194          1.0000000000
       582       194  TIP3  H2           -6.6945478348       -4.6602111797       10.5065918912  CLST         194          1.0000000000
       583       195  TIP3  OH2          -7.6903361963        9.0662292988       10.2914493479  CLST         195          1.0000000000
       584       195  TIP3  H1           -8.6193578177        9.1132041797       10.7321152787  CLST         195          1.0000000000
       585       195  TIP3  H2           -7.7393476152        8.1983110823        9.8466782142  CLST         195          1.0000000000
       586       196  TIP3  OH2           6.2344120623      -12.3011454152       -5.9399186121  CLST         196          1.0000000000
       587       196  TIP3  H1            6.4650198567      -11.5056147714       -6.4735812972  CLST         196          1.0000000000
       588       196  TIP3  H2            5.3289026074      -12.0613115337       -5.6436261017  CLST         196          1.0000000000
       589       197  TIP3  OH2           2.1133844156       -9.1085606070       -2.9446987065  CLST         197          1.0000000000
       590       197  TIP3  H1            1.8086437268       -8.1863526280       -2.7052007107  CLST         197          1.0000000000
       591       197  TIP3  H2            2.8813932421       -8.9991524260       -2.3930164417  CLST         197          1.0000000000
       592       198  TIP3  OH2          10.7947876046        1.7830098399        4.8169177639  CLST         198          1.0000000000
       593       198  TIP3  H1            9.8228189554        1.7193049614        4.9032707881  CLST         198          1.0000000000
       594       198  TIP3  H2           10.8917685232        2.7112185778        4.5050289433  CLST         198          1.0000000000
       595       199  TIP3  OH2          -0.2066045698        8.3692014489       -5.7274907274  CLST         199          1.0000000000
       596       199  TIP3  H1           -0.9975753079        8.7055908160       -5.2267180142  CLST         199          1.0000000000
       597       199  TIP3  H2           -0.3058538877        7.4006686378       -5.5493596245  CLST         199          1.0000000000
       598       200  TIP3  OH2          -7.5163906213       11.5096081656       11.6626696469  CLST         200          1.0000000000
       599       200  TIP3  H1           -7.8312868188       10.6393791065       11.3094235165  CLST         200          1.0000000000
       600       200  TIP3  H2           -7.0784960167       11.9477480718       10.9427109315  CLST         200          1.0000000000
       601       201  TIP3  OH2           4.6050252063        1.2137250706       -0.0102485375  CLST         201          1.0000000000
       602       201  TIP3  H1            4.6199574706        1.7834922641        0.7734994320  CLST         201          1.0000000000
       603       201  TIP3  H2            4.7641545528        0.4029143513        0.5109697503  CLST         201          1.0000000000
       604       202  TIP3  OH2          -2.1890991589       -4.4960995562      -12.4302805605  CLST         202          1.0000000000
       605       202  TIP3  H1           -2.0234429866       -5.0936536767      -11.6633704414  CLST         202          1.0000000000
       606       202  TIP3  H2           -2.6267170552       -3.7128324516      -12.0505006218  CLST         202          1.0000000000
       607       203  TIP3  OH2          -0.7884862818       11.3908762581        7.5071430837  CLST         203          1.0000000000
       608       203  TIP3  H1            0.0269195591       10.8991277106        7.7118089508  CLST         203          1.0000000000
       609       203  TIP3  H2           -1.3889257892       10.9509461744        8.1619212682  CLST         203          1.0000000000
       610       204  TIP3  OH2          -5.6321243541        6.4339073740      -13.2430135721  CLST         204          1.0000000000
       611       204  TIP3  H1           -4.9782616605        6.4794707784      -13.9708844590  CLST         204          1.0000000000
       612       204  TIP3  H2           -5.6034661340        5.4613467352      -13.0633909444  CLST         204          1.0000000000
       613       205  TIP3  OH2          -2.2897523832        7.2455001795       -2.6989653990  CLST         205          1.0000000000
       614       205  TIP3  H1           -2.1027972365        8.0345497621       -3.3276716803  CLST         205          1.0000000000
       615       205  TIP3  H2           -1.3092469124        6.9754479429       -2.6746732950  CLST         205          1.0000000000
       616       206  TIP3  OH2           5.0009331864      -11.0851699657       -9.8074904282  CLST         206          1.0000000000
       617       206  TIP3  H1            4.9596183051      -12.0019789086       -9.3770885619  CLST         206          1.0000000000
       618       206  TIP3  H2            5.6997030630      -10.7613340679       -9.1710299303  CLST         206          1.0000000000
       619       207  TIP3  OH2          13.0439389282       10.0311103315       12.1072932771  CLST         207          1.0000000000
       620       207  TIP3  H1           12.2947308225        9.7073674223       12.6549009913  CLST         207          1.0000000000
       621       207  TIP3  H2           13.7276238091        9.9404151321       12.5490203180  CLST         207          1.0000000000
       622       208  TIP3  OH2         -11.6104310755        2.3244324552        6.9679327462  CLST         208          1.0000000000
       623       208  TIP3  H1          -11.1598141476        2.2866070603        7.8058723966  CLST         208          1.0000000000
       624       208  TIP3  H2          -11.3194609872        3.1727712531        6.6097256473  CLST         208          1.0000000000
       625       209  TIP3  OH2           4.5881294901       -9.3514398767        7.4473511610  CLST         209          1.0000000000
       626       209  TIP3  H1            4.1523444114       -9.7195292857        6.6335641333  CLST         209          1.0000000000
       627       209  TIP3  H2            3.8941311391       -8.6533505149        7.5867103579  CLST         209          1.0000000000
       628       210  TIP3  OH2          12.3350725908      -11.0859648771        5.2659458150  CLST         210          1.0000000000
       629       210  TIP3  H1           12.5779817322      -11.1720970770        4.2827814713  CLST         210          1.0000000000
       630       210  TIP3  H2           12.4724759581      -10.1495757470        5.4313291797  CLST         210          1.0000000000
       631       211  TIP3  OH2          -0.4012901061       -9.2332486419       12.1841431385  CLST         211          1.0000000000
       632       211  TIP3  H1            0.1524806697       -9.8308530052       12.7363941563  CLST         211          1.0000000000
       633       211  TIP3  H2           -1.2248254303       -9.8229951178       12.1713336939  CLST         211          1.0000000000
       634       212  TIP3  OH2         -12.3602616131        3.4554240240       -2.5306291255  CLST         212          1.0000000000
       635       212  TIP3  H1          -11.7329704513        4.1145986287       -2.9680467075  CLST         212          1.0000000000
       636       212  TIP3  H2          -11.6746838106        2.7793741711       -2.3518842273  CLST         212          1.0000000000
       637       213  TIP3  OH2          -9.4119069292      -11.4337337004      -11.5736253484  CLST         213          1.0000000000
       638       213  TIP3  H1           -9.3974384591      -11.7851703020      -12.4376329795  CLST         213          1.0000000000
       639       213  TIP3  H2           -8.0259271112      -11.2710745851      -12.5859339583  CLST         213          1.0000000000
       640       214  TIP3  OH2          -6.5691421902        2.1162938770       -5.5677236517  CLST         214          1.0000000000
       641       214  TIP3  H1           -6.3724716666        1.2644173912       -5.2167881662  CLST         214          1.0000000000
       642       214  TIP3  H2           -7.2433776677        2.4778812049       -4.9198697337  CLST         214          1.0000000000
       643       215  TIP3  OH2         -11.9127769291      -12.8041339231        5.7394884307  CLST         215          1.0000000000
       644       215  TIP3  H1          -11.0049821662      -12.5336221822        5.5101165769  CLST         215          1.0000000000
       645       215  TIP3  H2          -12.0265062061      -13.1100561188        4.7638617097  CLST         215          1.0000000000
       646       216  TIP3  OH2         -11.9026140788       -2.2312235468        8.0331164392  CLST         216          1.0000000000
       647       216  TIP3  H1          -10.9385728089       -1.9482074472        8.2721421046  CLST         216          1.0000000000
       648       216  TIP3  H2          -11.7911100333       -3.2089383252        8.1892603894  CLST         216          1.0000000000
       649       217  TIP3  OH2           7.5705042282       -0.3796944016       -1.6372670093  CLST         217          1.0000000000
       650       217  TIP3  H1            7.8525224279       -1.2876472982       -1.9082346227  CLST         217          1.0000000000
       651       217  TIP3  H2            7.0379269820       -0.5151035497       -0.8471901514  CLST         217          1.0000000000
       652       218  TIP3  OH2          -8.3782643030       -4.0143769491        9.0302694995  CLST         218          1.0000000000
       653       218  TIP3  H1           -8.6523934869       -3.0483918985        8.8530026518  CLST         218          1.0000000000
       654       218  TIP3  H2           -7.7541533983       -4.1540442234        8.2742164417  CLST         218          1.0000000000
       655       219  TIP3  OH2         -12.7448594646       -4.5446721139       -2.8594354576  CLST         219          1.0000000000
       656       219  TIP3  H1          -12.5191018793       -3.8178797106       -2.2029833072  CLST         219          1.0000000000
       657       219  TIP3  H2          -13.2613952366       -4.0126821132       -3.4964795728  CLST         219          1.0000000000
       658       220  TIP3  OH2           6.4222478617        6.9151437286        7.6429089346  CLST         220          1.0000000000
       659       220  TIP3  H1            5.8997961897        6.7597013987        6.7612610838  CLST         220          1.0000000000
       660       220  TIP3  H2            5.7977688359        6.3920437803        8.1956834973  CLST         220          1.0000000000
       661       221  TIP3  OH2         -10.3211404176       -7.1282720508       10.2344103349  CLST         221          1.0000000000
       662       221  TIP3  H1           -9.5135459516       -7.2870267844       10.5974202777  CLST         221          1.0000000000
       663       221  TIP3  H2          -10.4623586433       -8.2491009619        9.8638741733  CLST         221          1.0000000000
       664       222  TIP3  OH2          -6.9442205119       -0.9297571105      -13.7181113523  CLST         222          1.0000000000
       665       222  TIP3  H1           -6.5507342333       -1.8790923775      -13.5601188425  CLST         222          1.0000000000
       666       222  TIP3  H2           -7.8693529668       -1.1287647826      -13.7282205328  CLST         222          1.0000000000
       667       223  TIP3  OH2           2.6731748526      -10.7561343696      -11.7316248635  CLST         223          1.0000000000
       668       223  TIP3  H1            2.1508506437      -11.6042440168      -11.5948859833  CLST         223          1.0000000000
       669       223  TIP3  H2            3.4888917309      -10.9219433826      -11.2373912796  CLST         223          1.0000000000
       670       224  TIP3  OH2           7.6137724582        4.6233113533        0.6516072820  CLST         224          1.0000000000
       671       224  TIP3  H1            8.2520503666        5.3443529278        0.5672934195  CLST         224          1.0000000000
       672       224  TIP3  H2            7.5339734540        4.2680533189       -0.2684934311  CLST         224          1.0000000000
       673       225  TIP3  OH2          -0.1289758137        4.6529159424       -1.0815318576  CLST         225          1.0000000000
       674       225  TIP3  H1           -0.3037364901        4.6503394637       -0.1085287183  CLST         225          1.0000000000
       675       225  TIP3  H2           -0.1309533940        3.6317184354       -1.1400560377  CLST         225          1.0000000000
       676       226  TIP3  OH2          -5.7549567874       -4.3707063753        7.5953956250  CLST         226          1.0000000000
       677       226  TIP3  H1           -5.6312029502       -5.3779844608        7.7337033397  CLST         226          1.0000000000
       678       226  TIP3  H2           -5.7079502292       -4.2774018081        6.6473852190  CLST         226          1.0000000000
       679       227  TIP3  OH2          11.5994307417       -4.1909595693       -9.7817280848  CLST         227          1.0000000000
       680       227  TIP3  H1           11.5261543464       -3.5988079264       -8.8696925688  CLST         227          1.0000000000
       681       227  TIP3  H2           11.2457037229       -3.4427691971      -10.3271628552  CLST         227          1.0000000000
       682       228  TIP3  OH2           3.5336978045       12.5634133304        3.2116593818  CLST         228          1.0000000000
       683       228  TIP3  H1            2.6699905398       12.1442982722        3.7421689320  CLST         228          1.0000000000
       684       228  TIP3  H2            3.2030095893       12.9374556311        2.4833269677  CLST         228          1.0000000000
       685       229  TIP3  OH2         -11.4840537834      -13.0593525496        2.9696122091  CLST         229          1.0000000000
       686       229  TIP3  H1          -11.5137669121      -13.0260119024        2.0332046752  CLST         229          1.0000000000
       687       229  TIP3  H2          -11.1280834989      -11.8279386136        1.3871626201  CLST         229          1.0000000000
       688       230  TIP3  OH2          12.4021141228        6.2642932076       -3.2999316892  CLST         230          1.0000000000
       689       230  TIP3  H1           13.3284193365        6.1395510737       -3.0803245572  CLST         230          1.0000000000
       690       230  TIP3  H2           12.1356806510        5.3186043016       -3.4289390558  CLST         230          1.0000000000
       691       231  TIP3  OH2           7.1568255373        3.2121946278        4.7300063738  CLST         231          1.0000000000
       692       231  TIP3  H1            7.4860119328        4.1306809480        4.9786310304  CLST         231          1.0000000000
       693       231  TIP3  H2            6.3684579043        3.5797430977        4.1868786362  CLST         231          1.0000000000
       694       232  TIP3  OH2         -10.3740469996        8.9580455917        7.5323729517  CLST         232          1.0000000000
       695       232  TIP3  H1          -10.8763084564        9.5860234077        8.1493799153  CLST         232          1.0000000000
       696       232  TIP3  H2          -10.2621991364        8.1052355454        8.0419903765  CLST         232          1.0000000000
       697       233  TIP3  OH2           3.6605525841       -5.2456460485        8.0191967801  CLST         233          1.0000000000
       698       233  TIP3  H1            4.0305496611       -5.7801928104        8.7211377385  CLST         233          1.0000000000
       699       233  TIP3  H2            3.5602971639       -4.3884033889        8.5741717417  CLST         233          1.0000000000
       700       234  TIP3  OH2          -3.6825788594        8.5898526052       -0.7164091509  CLST         234          1.0000000000
       701       234  TIP3  H1           -3.1875379603        8.3972470065       -1.5711417065  CLST         234          1.0000000000
       702       234  TIP3  H2           -3.7211728672        9.5467143815       -0.8281332644  CLST         234          1.0000000000
       703       235  TIP3  OH2          -1.9038716850       -4.0418450981       -9.0634560940  CLST         235          1.0000000000
       704       235  TIP3  H1           -1.8351756521       -4.9389467043       -9.5300694668  CLST         235          1.0000000000
       705       235  TIP3  H2           -0.9313639989       -3.8328191739       -9.1869749652  CLST         235          1.0000000000
       706       236  TIP3  OH2          -0.1113371244      -13.5402442161       -2.9854544896  CLST         236          1.0000000000
       707       236  TIP3  H1            0.4566158229      -12.8446693277       -2.5626675369  CLST         236          1.0000000000
       708       236  TIP3  H2           -0.7067421342      -13.7358658368       -2.2215343022  CLST         236          1.0000000000
       709       237  TIP3  OH2          -3.4835142119       -5.1936465062       10.7999004513  CLST         237          1.0000000000
       710       237  TIP3  H1           -4.3943206357       -4.8553482270       11.0947803766  CLST         237          1.0000000000
       711       237  TIP3  H2           -3.7623655443       -5.7947240793       10.0668618579  CLST         237          1.0000000000
       712       238  TIP3  OH2           0.5554363440        4.5648097026        7.3401411409  CLST         238          1.0000000000
       713       238  TIP3  H1           -0.0804383429        5.2072789449        6.8971345313  CLST         238          1.0000000000
       714       238  TIP3  H2            0.5713955664        5.0360276825        8.2218381385  CLST         238          1.0000000000
       715       239  TIP3  OH2         -13.9481661489        5.8756602685        3.5922198693  CLST         239          1.0000000000
       716       239  TIP3  H1          -14.1757713204        6.5750835344        2.9840297004  CLST         239          1.0000000000
       717       239  TIP3  H2          -13.3128576665        5.3892289221        3.0836422146  CLST         239          1.0000000000
       718       240  TIP3  OH2         -13.8777456234        8.7901815191       -0.2322462985  CLST         240          1.0000000000
       719       240  TIP3  H1          -14.4013579946        9.2756096741        0.4120222315  CLST         240          1.0000000000
       720       240  TIP3  H2          -13.8549471936        7.8104935278        0.0582023387  CLST         240          1.0000000000
       721       241  TIP3  OH2          -7.6642066278       -7.7687186422       -8.6396465872  CLST         241          1.0000000000
       722       241  TIP3  H1           -7.8312180728       -8.0593750351       -7.7192577287  CLST         241          1.0000000000
       723       241  TIP3  H2           -7.6964483419       -6.7949908665       -8.5493908826  CLST         241          1.0000000000
       724       242  TIP3  OH2           6.1940263854       -5.6660366239        9.9234312872  CLST         242          1.0000000000
       725       242  TIP3  H1            6.5675643619       -4.8678323332        9.4460239981  CLST         242          1.0000000000
       726       242  TIP3  H2            6.9006963453       -6.2724406435        9.6024826771  CLST         242          1.0000000000
       727       243  TIP3  OH2          -6.7165531301       -7.1660122839       -4.2894381813  CLST         243          1.0000000000
       728       243  TIP3  H1           -6.3089712000       -7.9544998000       -4.8311258200  CLST         243          1.0000000000
       729       243  TIP3  H2           -6.5375404299       -7.6776807850       -3.4619583941  CLST         243          1.0000000000
       730       244  TIP3  OH2           4.8979244040        5.8050356038        5.3761684171  CLST         244          1.0000000000
       731       244  TIP3  H1            4.9850980264        5.4108335399        4.4739783052  CLST         244          1.0000000000
       732       244  TIP3  H2            4.1396660437        5.2121902741        5.6090355118  CLST         244          1.0000000000
       733       245  TIP3  OH2          -6.8626760200        3.7197080160       -7.6762938452  CLST         245          1.0000000000
       734       245  TIP3  H1           -7.0225861945        2.9865417840       -6.9838072578  CLST         245          1.0000000000
       735       245  TIP3  H2           -7.3186596727        4.4130845574       -7.1400760543  CLST         245          1.0000000000
       736       246  TIP3  OH2           2.0919008093       -6.5071362410       -1.9610335470  CLST         246          1.0000000000
       737       246  TIP3  H1            1.8081083537       -5.6232558219       -2.5243738878  CLST         246          1.0000000000
       738       246  TIP3  H2            3.0539504351       -6.4966055913       -2.2437723937  CLST         246          1.0000000000
       739       247  TIP3  OH2           5.9722580201        7.9380210044        0.4889742797  CLST         247          1.0000000000
       740       247  TIP3  H1            6.4330575658        7.7749438986       -0.3861578739  CLST         247          1.0000000000
       741       247  TIP3  H2            5.5780509806        8.8519242086        0.2126320761  CLST         247          1.0000000000
       742       248  TIP3  OH2          -2.5133875142        8.4037784645      -11.8369133929  CLST         248          1.0000000000
       743       248  TIP3  H1           -1.9314807584        8.5907850944      -12.5707930060  CLST         248          1.0000000000
       744       248  TIP3  H2           -2.0789922913        9.0378574492      -11.1450922587  CLST         248          1.0000000000
       745       249  TIP3  OH2           8.9076162564        4.8002704566       -7.8467951361  CLST         249          1.0000000000
       746       249  TIP3  H1            8.0917830160        5.3795662550       -7.6905256493  CLST         249          1.0000000000
       747       249  TIP3  H2            8.5467599958        4.0158181372       -7.4092431127  CLST         249          1.0000000000
       748       250  TIP3  OH2          -7.5474008510        9.6472496605       -5.4927616900  CLST         250          1.0000000000
       749       250  TIP3  H1           -7.8133751744        8.8146482476       -5.8538978770  CLST         250          1.0000000000
       750       250  TIP3  H2           -7.4251343905       10.2267740358       -6.2866460804  CLST         250          1.0000000000
       751       251  TIP3  OH2          -3.6165036582       12.4218277714        3.0272109039  CLST         251          1.0000000000
       752       251  TIP3  H1           -3.4814240231       13.3890836446        2.9326259939  CLST         251          1.0000000000
       753       251  TIP3  H2           -3.1659530540       12.2667826304        3.8565455614  CLST         251          1.0000000000
       754       252  TIP3  OH2           5.8906659532        5.2745693085       14.6392543003  CLST         252          1.0000000000
       755       252  TIP3  H1            5.7172316962        6.2368411005       14.5369759999  CLST         252          1.0000000000
       756       252  TIP3  H2            6.1221980070        4.9646364250       15.4700077236  CLST         252          1.0000000000
       757       253  TIP3  OH2           6.0758722724       13.9931344776        3.2148267889  CLST         253          1.0000000000
       758       253  TIP3  H1            5.1967931980       13.5565253487        3.3194847826  CLST         253          1.0000000000
       759       253  TIP3  H2            6.1596036005       13.8527387704        2.2663035179  CLST         253          1.0000000000
       760       254  TIP3  OH2          -4.0198478793        8.1347824457        2.9589839411  CLST         254          1.0000000000
       761       254  TIP3  H1           -4.4112185030        8.7967402665        2.3351553952  CLST         254          1.0000000000
       762       254  TIP3  H2           -4.7263516150        7.4591657626        3.0715167122  CLST         254          1.0000000000
       763       255  TIP3  OH2          -7.0940745814       10.4978110890        4.2377458982  CLST         255          1.0000000000
       764       255  TIP3  H1           -7.6030869546       11.2363552628        4.5705310787  CLST         255          1.0000000000
       765       255  TIP3  H2           -7.2415445818        9.8044900072        4.9395882336  CLST         255          1.0000000000
       766       256  TIP3  OH2          11.4421976744        3.7316343387       -1.4255847269  CLST         256          1.0000000000
       767       256  TIP3  H1           11.9394961408        2.9364918647       -1.6946914737  CLST         256          1.0000000000
       768       256  TIP3  H2           11.1910187982        3.4830677337       -0.4995694654  CLST         256          1.0000000000
       769       257  TIP3  OH2          -8.4574074479       -1.0697350246       -5.0611566096  CLST         257          1.0000000000
       770       257  TIP3  H1           -7.5597609625       -0.8091862132       -4.7009667398  CLST         257          1.0000000000
       771       257  TIP3  H2           -8.4273416742       -0.8424913889       -6.0222324470  CLST         257          1.0000000000
       772       258  TIP3  OH2          -5.4500033295       10.4050646477        8.0093618715  CLST         258          1.0000000000
       773       258  TIP3  H1           -5.3143302861       11.4784467199        6.8189647181  CLST         258          1.0000000000
       774       258  TIP3  H2           -6.4493268873       11.4316633446        7.8411862686  CLST         258          1.0000000000
       775       259  TIP3  OH2          10.1383290737        6.0400005570        0.8460502100  CLST         259          1.0000000000
       776       259  TIP3  H1           10.9524483828        6.5625656166        0.7171192168  CLST         259          1.0000000000
       777       259  TIP3  H2           10.0471966739        6.3226956897        1.7912435393  CLST         259          1.0000000000
       778       260  TIP3  OH2          -4.9564170489        7.7173884026        8.9452986314  CLST         260          1.0000000000
       779       260  TIP3  H1           -5.0157733844        8.5758049176        8.4497658513  CLST         260          1.0000000000
       780       260  TIP3  H2           -5.8104284740        7.3470506143        8.5798923768  CLST         260          1.0000000000
       781       261  TIP3  OH2           0.6139649998       -4.3400035084       12.2062248092  CLST         261          1.0000000000
       782       261  TIP3  H1            0.2731087963       -5.2929906017       12.3813298636  CLST         261          1.0000000000
       783       261  TIP3  H2            1.4938759226       -4.3242908434       12.5541083910  CLST         261          1.0000000000
       784       262  TIP3  OH2         -10.9477775939        4.8942000312        5.8429156647  CLST         262          1.0000000000
       785       262  TIP3  H1          -10.1629145248        4.6986104704        5.2778728567  CLST         262          1.0000000000
       786       262  TIP3  H2          -11.5836507165        5.2559159667        5.1563337612  CLST         262          1.0000000000
       787       263  TIP3  OH2           1.6004614719        0.9541853903        6.6928922332  CLST         263          1.0000000000
       788       263  TIP3  H1            2.3170220818        1.5869597724        6.7938818938  CLST         263          1.0000000000
       789       263  TIP3  H2            2.0812355351        0.1385507148        6.9223134123  CLST         263          1.0000000000
       790       264  TIP3  OH2           5.2380661392       -4.5372240060       -9.6599102369  CLST         264          1.0000000000
       791       264  TIP3  H1            5.1780266143       -5.4889716692      -10.0139211693  CLST         264          1.0000000000
       792       264  TIP3  H2            4.3989371190       -4.2807804430      -10.1198631309  CLST         264          1.0000000000
       793       265  TIP3  OH2           7.4776627905        4.8011087927      -10.1014528196  CLST         265          1.0000000000
       794       265  TIP3  H1            7.7831302494        5.7208943095      -10.6080698645  CLST         265          1.0000000000
       795       265  TIP3  H2            8.3646731881        4.5936023454       -9.6835929055  CLST         265          1.0000000000
       796       266  TIP3  OH2          -7.9164420644       -8.8091923466        0.0300898868  CLST         266          1.0000000000
       797       266  TIP3  H1           -7.6973855617       -9.0429836493        0.9400832371  CLST         266          1.0000000000
       798       266  TIP3  H2           -8.2589099895       -7.8721895094        0.0766638292  CLST         266          1.0000000000
       799       267  TIP3  OH2           1.2928329218        2.4937576039       -5.1751503029  CLST         267          1.0000000000
       800       267  TIP3  H1            1.4510836531        3.4236684834       -4.8671784494  CLST         267          1.0000000000
       801       267  TIP3  H2            2.2227443939        2.2316785914       -5.0281355216  CLST         267          1.0000000000
       802       268  TIP3  OH2           5.0118468959       -4.7250887728       -6.9200937392  CLST         268          1.0000000000
       803       268  TIP3  H1            4.9692476421       -4.5107132972       -7.8785112203  CLST         268          1.0000000000
       804       268  TIP3  H2            4.7720154439       -5.7075536194       -7.0596669955  CLST         268          1.0000000000
       805       269  TIP3  OH2           5.5967433444       10.6145699502       -0.1709725772  CLST         269          1.0000000000
       806       269  TIP3  H1            6.5579333957       10.6075400271       -0.5323096563  CLST         269          1.0000000000
       807       269  TIP3  H2            5.7457683074       11.4523689924        0.3214076566  CLST         269          1.0000000000
       808       270  TIP3  OH2           1.3013536793        9.2024317068       -7.8569107239  CLST         270          1.0000000000
       809       270  TIP3  H1            1.4369530875        8.3805627696       -8.3473111087  CLST         270          1.0000000000
       810       270  TIP3  H2            0.8321221092        8.8311846206       -7.1040536384  CLST         270          1.0000000000
       811       271  TIP3  OH2          -6.5067705193       -8.9414852431       -2.1557533458  CLST         271          1.0000000000
       812       271  TIP3  H1           -5.6164724935       -8.9383948483       -1.7016599072  CLST         271          1.0000000000
       813       271  TIP3  H2           -7.0730345350       -8.9536781219       -1.3092357659  CLST         271          1.0000000000
       814       272  TIP3  OH2           9.4444787489       -8.2316148833        5.5556053222  CLST         272          1.0000000000
       815       272  TIP3  H1            8.4977260786       -8.3792208264        5.7688816673  CLST         272          1.0000000000
       816       272  TIP3  H2            9.4636662355       -7.5568571678        4.8018040273  CLST         272          1.0000000000
       817       273  TIP3  OH2         -13.8803299635        9.3940343018        2.9950820158  CLST         273          1.0000000000
       818       273  TIP3  H1          -15.0265690807       10.4662094359        4.5889922146  CLST         273          1.0000000000
       819       273  TIP3  H2          -14.2677404950        9.5440994574        3.9297546011  CLST         273          1.0000000000
       820       274  TIP3  OH2           4.2080541288       12.7700035270       -4.1841208631  CLST         274          1.0000000000
       821       274  TIP3  H1            3.9461757977       11.5148801761       -2.7563172506  CLST         274          1.0000000000
       822       274  TIP3  H2            4.0914380028       13.7181698460       -4.2453218053  CLST         274          1.0000000000
       823       275  TIP3  OH2           8.7159144051      -11.1825193175        5.8243150403  CLST         275          1.0000000000
       824       275  TIP3  H1            9.2695689903      -10.4111532070        5.7121077072  CLST         275          1.0000000000
       825       275  TIP3  H2            9.2828633077      -11.9439660906        5.4951328309  CLST         275          1.0000000000
       826       276  TIP3  OH2          -0.1350330156       -5.8669878413        1.4687664496  CLST         276          1.0000000000
       827       276  TIP3  H1           -0.6438394915       -6.1604460644        0.6248797129  CLST         276          1.0000000000
       828       276  TIP3  H2           -0.7183432961       -5.0884367462        1.8918981788  CLST         276          1.0000000000
       829       277  TIP3  OH2           6.4708023170        6.2717506161       -7.0898568361  CLST         277          1.0000000000
       830       277  TIP3  H1            5.6784778273        5.8099969369       -7.4482117551  CLST         277          1.0000000000
       831       277  TIP3  H2            6.4587022873        7.1355023074       -7.4894308691  CLST         277          1.0000000000
       832       278  TIP3  OH2          -0.7131695409       -7.5812927407        3.4500142345  CLST         278          1.0000000000
       833       278  TIP3  H1           -0.4922776447       -6.9247430213        2.6031541178  CLST         278          1.0000000000
       834       278  TIP3  H2           -0.7362621588       -6.8170231826        4.0698327388  CLST         278          1.0000000000
       835       279  TIP3  OH2         -13.5915252003        6.3636229483        0.5621417776  CLST         279          1.0000000000
       836       279  TIP3  H1          -13.6398906874        5.3817146657        0.2394292001  CLST         279          1.0000000000
       837       279  TIP3  H2          -12.6552301441        6.3479522709        0.8600498421  CLST         279          1.0000000000
       838       280  TIP3  OH2          -3.4489004306      -10.0999133804        5.5684501317  CLST         280          1.0000000000
       839       280  TIP3  H1           -3.4574616908       -9.1465561663        5.8320864789  CLST         280          1.0000000000
       840       280  TIP3  H2           -3.9634769727       -9.8825899811        4.7403364258  CLST         280          1.0000000000
       841       281  TIP3  OH2           8.1424122550        7.7382466645      -10.7707602725  CLST         281          1.0000000000
       842       281  TIP3  H1            8.3394665635        8.7270080359      -10.5287182351  CLST         281          1.0000000000
       843       281  TIP3  H2            7.1864124290        7.9146446692      -10.5555737263  CLST         281          1.0000000000
       844       282  TIP3  OH2          -7.8601516914      -11.7788351639        9.8482648029  CLST         282          1.0000000000
       845       282  TIP3  H1           -8.6690821691      -11.8710693789        9.3351516046  CLST         282          1.0000000000
       846       282  TIP3  H2           -7.2888748582      -12.3799669674        9.2738518347  CLST         282          1.0000000000
       847       283  TIP3  OH2           4.4410299264        8.6748074016       -4.7367405045  CLST         283          1.0000000000
       848       283  TIP3  H1            4.6774393649        9.6942914601       -4.9671934828  CLST         283          1.0000000000
       849       283  TIP3  H2            3.7719556557        8.8013204572       -4.0046616681  CLST         283          1.0000000000
       850       284  TIP3  OH2          11.9046438512        8.4773984306       -1.3934203990  CLST         284          1.0000000000
       851       284  TIP3  H1           11.9325455205        7.6299382582       -1.8587801698  CLST         284          1.0000000000
       852       284  TIP3  H2           11.0452069228        8.8389479774       -1.7735515475  CLST         284          1.0000000000
       853       285  TIP3  OH2          -5.3162629659        2.0496443122        8.7636480259  CLST         285          1.0000000000
       854       285  TIP3  H1           -4.6315566313        1.8143550312        8.1226794265  CLST         285          1.0000000000
       855       285  TIP3  H2           -4.8802963757        2.8823096317        9.0929716419  CLST         285          1.0000000000
       856       286  TIP3  OH2           3.1486293459        5.9145013968       -0.5178179105  CLST         286          1.0000000000
       857       286  TIP3  H1            2.3544811398        5.4975014376       -0.1761801473  CLST         286          1.0000000000
       858       286  TIP3  H2            3.8194621322        5.6829480077        0.2087104578  CLST         286          1.0000000000
       859       287  TIP3  OH2          -4.2060653755        9.3873197932       11.1490607396  CLST         287          1.0000000000
       860       287  TIP3  H1           -4.7111903772       10.1680895687       11.5125216048  CLST         287          1.0000000000
       861       287  TIP3  H2           -4.9097702971        8.8084444825       10.8470547489  CLST         287          1.0000000000
       862       288  TIP3  OH2           5.4804940698        3.5494227779       -9.1218233060  CLST         288          1.0000000000
       863       288  TIP3  H1            6.3958824608        3.8911558227       -9.9902502348  CLST         288          1.0000000000
       864       288  TIP3  H2            6.6986044720        5.4858403828       -9.8517056012  CLST         288          1.0000000000
       865       289  TIP3  OH2          -7.1240248185       -5.1865760055       -8.3294848339  CLST         289          1.0000000000
       866       289  TIP3  H1           -7.7765998125       -4.5024705571       -8.1652017969  CLST         289          1.0000000000
       867       289  TIP3  H2           -6.3034461689       -5.0798429952       -8.0340656551  CLST         289          1.0000000000
       868       290  TIP3  OH2           2.2489257372      -11.9653871968       11.1724742784  CLST         290          1.0000000000
       869       290  TIP3  H1            2.8444197788      -12.6421556639       10.8730595088  CLST         290          1.0000000000
       870       290  TIP3  H2            2.8496641778      -11.4315677160       11.7214749548  CLST         290          1.0000000000
       871       291  TIP3  OH2         -10.1265723913       -3.5267653690        2.8142969742  CLST         291          1.0000000000
       872       291  TIP3  H1          -10.8607386591       -4.1367162629        3.2295864995  CLST         291          1.0000000000
       873       291  TIP3  H2           -9.9346355772       -4.1178526728        2.0720987305  CLST         291          1.0000000000
       874       292  TIP3  OH2          12.0330921132        3.4725178160       -4.6067114093  CLST         292          1.0000000000
       875       292  TIP3  H1           11.0752360061        3.1382237920       -4.5368959007  CLST         292          1.0000000000
       876       292  TIP3  H2           11.7556777853        4.1673593088       -5.3081588368  CLST         292          1.0000000000
       877       293  TIP3  OH2           8.9807116086       10.6806530271       11.0975103891  CLST         293          1.0000000000
       878       293  TIP3  H1            8.5533849694       11.3232728773       11.5575206159  CLST         293          1.0000000000
       879       293  TIP3  H2            9.0859907761       11.2559447613       10.2338366472  CLST         293          1.0000000000
       880       294  TIP3  OH2           4.1545581127        4.5588139609       -2.4445898318  CLST         294          1.0000000000
       881       294  TIP3  H1            3.8297410419        5.1792280345       -1.7131503931  CLST         294          1.0000000000
       882       294  TIP3  H2            4.4070549821        5.2416033684       -3.1321668844  CLST         294          1.0000000000
       883       295  TIP3  OH2          -2.4858816871      -13.3529311606       -8.7212147415  CLST         295          1.0000000000
       884       295  TIP3  H1           -3.1079254015      -13.3334808153       -7.9013086956  CLST         295          1.0000000000
       885       295  TIP3  H2           -1.6943368295      -13.6065185429       -8.2144453526  CLST         295          1.0000000000
       886       296  TIP3  OH2          -1.5913736048       11.4932587184      -13.1839229178  CLST         296          1.0000000000
       887       296  TIP3  H1           -0.6541679633       11.2031742065      -12.9459308956  CLST         296          1.0000000000
       888       296  TIP3  H2           -1.9747640242       11.0871431878      -12.3265101803  CLST         296          1.0000000000
       889       297  TIP3  OH2           8.0598774022       -0.2994293547       11.3242765448  CLST         297          1.0000000000
       890       297  TIP3  H1            8.6759153571       -1.0582049421       11.1551787168  CLST         297          1.0000000000
       891       297  TIP3  H2            7.2323123824       -0.8569194188       11.4168027805  CLST         297          1.0000000000
       892       298  TIP3  OH2           0.9316638925       -1.2273974134       -7.5306814548  CLST         298          1.0000000000
       893       298  TIP3  H1            1.4748600569       -0.6156428134       -8.1129710084  CLST         298          1.0000000000
       894       298  TIP3  H2            0.8054384799       -1.9864628821       -8.1509159247  CLST         298          1.0000000000
       895       299  TIP3  OH2           2.9891996549       10.3087452919       12.8456341014  CLST         299          1.0000000000
       896       299  TIP3  H1            2.2531339310       10.5462374719       12.2731713416  CLST         299          1.0000000000
       897       299  TIP3  H2            2.4588298456        9.6607014059       13.2563754807  CLST         299          1.0000000000
       898       300  TIP3  OH2         -10.8340283605        5.1414491153       -3.6287029464  CLST         300          1.0000000000
       899       300  TIP3  H1          -10.9743061057        5.4048203486       -4.5503057747  CLST         300          1.0000000000
       900       300  TIP3  H2          -10.8205476388        6.0706072768       -3.2358663726  CLST         300          1.0000000000
       901       301  TIP3  OH2           9.7387469221       -8.1549662974       11.3087450451  CLST         301          1.0000000000
       902       301  TIP3  H1            9.3235079457       -7.7355459222       12.1355818440  CLST         301          1.0000000000
       903       301  TIP3  H2            9.7564893380       -9.0508879588       11.6448035323  CLST         301          1.0000000000
       904       302  TIP3  OH2           8.0161312911       12.9965430857        5.4807596614  CLST         302          1.0000000000
       905       302  TIP3  H1            7.4011730556       13.5004766960        4.9441966853  CLST         302          1.0000000000
       906       302  TIP3  H2            7.3366006216       12.3479535733        5.7725176893  CLST         302          1.0000000000
       907       303  TIP3  OH2         -10.7574685783        1.3518874110       -1.9068505919  CLST         303          1.0000000000
       908       303  TIP3  H1           -9.8497344760        1.0740045590       -1.5833294863  CLST         303          1.0000000000
       909       303  TIP3  H2          -10.8128971755        0.8652398456       -2.7211794004  CLST         303          1.0000000000
       910       304  TIP3  OH2          -7.9914885978        1.2168424961      -14.9269316902  CLST         304          1.0000000000
       911       304  TIP3  H1           -7.5154445313        0.3920725110      -14.6014340144  CLST         304          1.0000000000
       912       304  TIP3  H2           -7.2749175144        1.5071095504      -15.5006460021  CLST         304          1.0000000000
       913       305  TIP3  OH2           3.5742304422       -3.7568065803       13.7187719187  CLST         305          1.0000000000
       914       305  TIP3  H1            4.2693233288       -4.4865706105       13.8154636797  CLST         305          1.0000000000
       915       305  TIP3  H2            4.3502243869       -3.1244435774       13.7660155670  CLST         305          1.0000000000
       916       306  TIP3  OH2           8.8667458348      -11.8828780022      -11.3551895836  CLST         306          1.0000000000
       917       306  TIP3  H1            9.5875605780      -11.5337423430      -12.0598409298  CLST         306          1.0000000000
       918       306  TIP3  H2            9.3395040572      -12.6525872777      -11.1146498121  CLST         306          1.0000000000
       919       307  TIP3  OH2           9.1448479712        8.0288094217       -7.6912193194  CLST         307          1.0000000000
       920       307  TIP3  H1            8.2231463768        8.3768395293       -7.7156849976  CLST         307          1.0000000000
       921       307  TIP3  H2            9.4513150739        8.3189871164       -6.8260543763  CLST         307          1.0000000000
       922       308  TIP3  OH2         -10.9084100468       -4.9208444787        8.8168761167  CLST         308          1.0000000000
       923       308  TIP3  H1          -10.9585900169       -5.7091585123        9.4288837373  CLST         308          1.0000000000
       924       308  TIP3  H2           -9.9426233931       -4.6717589116        8.9696257496  CLST         308          1.0000000000
       925       309  TIP3  OH2          -1.8912449776       -0.6613024600        5.3976693442  CLST         309          1.0000000000
       926       309  TIP3  H1           -2.7785851927       -0.9293152695        5.0756020858  CLST         309          1.0000000000
       927       309  TIP3  H2           -1.8843905683       -1.2269861267        6.2434211794  CLST         309          1.0000000000
       928       310  TIP3  OH2          -5.1237605856       -0.5492086366        7.2155519727  CLST         310          1.0000000000
       929       310  TIP3  H1           -4.4106811817       -0.0654753360        7.6399355634  CLST         310          1.0000000000
       930       310  TIP3  H2           -5.1411674042       -1.3063777476        7.8488010167  CLST         310          1.0000000000
       931       311  TIP3  OH2          -7.2955746522        8.4992251932      -12.5467336769  CLST         311          1.0000000000
       932       311  TIP3  H1           -6.6381467780        7.7265566690      -12.9463088211  CLST         311          1.0000000000
       933       311  TIP3  H2           -7.3916383738        8.1341135752      -11.6943452318  CLST         311          1.0000000000
       934       312  TIP3  OH2           6.4612708437       -0.9489575952       -6.1956719341  CLST         312          1.0000000000
       935       312  TIP3  H1            6.4239768923       -0.1347741246       -5.6676602165  CLST         312          1.0000000000
       936       312  TIP3  H2            6.0513309600       -1.5719887058       -5.5672516510  CLST         312          1.0000000000
       937       313  TIP3  OH2          -9.0181672017      -10.5758906060        7.1118998781  CLST         313          1.0000000000
       938       313  TIP3  H1           -8.2938957579       -9.9183617816        6.9290242972  CLST         313          1.0000000000
       939       313  TIP3  H2           -9.4228545381      -10.5162483164        6.2061358121  CLST         313          1.0000000000
       940       314  TIP3  OH2          -1.3086289623      -12.1199744344      -10.7840131270  CLST         314          1.0000000000
       941       314  TIP3  H1           -1.2701435062      -11.2527363918      -10.2596392133  CLST         314          1.0000000000
       942       314  TIP3  H2           -1.8705461750      -12.5927197639      -10.0691935837  CLST         314          1.0000000000
       943       315  TIP3  OH2          -1.3743167252       -0.5523033241       -6.3957612203  CLST         315          1.0000000000
       944       315  TIP3  H1           -0.4960335435       -0.9116167927       -6.6792159298  CLST         315          1.0000000000
       945       315  TIP3  H2           -1.2538574776       -0.1086309393       -5.5151198236  CLST         315          1.0000000000
       946       316  TIP3  OH2         -13.1838425321       -3.9224017924       -5.5399849069  CLST         316          1.0000000000
       947       316  TIP3  H1          -12.3895840688       -4.4751909246       -5.7894826311  CLST         316          1.0000000000
       948       316  TIP3  H2          -12.8063560579       -3.1334803676       -6.0330296261  CLST         316          1.0000000000
       949       317  TIP3  OH2          -6.1388520118       -0.2249061758       -3.7765781764  CLST         317          1.0000000000
       950       317  TIP3  H1           -5.1788924748       -0.2529319403       -3.4684502369  CLST         317          1.0000000000
       951       317  TIP3  H2           -6.4261638536        0.3298545534       -3.0100706637  CLST         317          1.0000000000
       952       318  TIP3  OH2          -4.0540638505       -9.7305003939       -9.5021322408  CLST         318          1.0000000000
       953       318  TIP3  H1           -4.2475802551       -9.8132003223       -8.5405186339  CLST         318          1.0000000000
       954       318  TIP3  H2           -3.0630096635       -9.8408417332       -9.4819265449  CLST         318          1.0000000000
       955       319  TIP3  OH2           5.5744487286       10.8652145819        8.5881655531  CLST         319          1.0000000000
       956       319  TIP3  H1            6.2920882709       10.2341008910        8.3591276574  CLST         319          1.0000000000
       957       319  TIP3  H2            6.0501787624       11.4466041383        9.1306055075  CLST         319          1.0000000000
       958       320  TIP3  OH2         -10.6367631165        1.2332806852      -14.2905358948  CLST         320          1.0000000000
       959       320  TIP3  H1           -9.8093000891        1.3764516645      -14.7971088343  CLST         320          1.0000000000
       960       320  TIP3  H2          -10.3084717037        0.3594849791      -13.9028075407  CLST         320          1.0000000000
       961       321  TIP3  OH2          -9.8584433038       10.2987805010       -9.7731244564  CLST         321          1.0000000000
       962       321  TIP3  H1          -10.6086260806       10.2213225679      -10.3042312440  CLST         321          1.0000000000
       963       321  TIP3  H2           -9.7081669933       10.1956145638      -11.2653820924  CLST         321          1.0000000000
       964       322  TIP3  OH2         -12.5862176269       -1.7887494022       -2.2683497082  CLST         322          1.0000000000
       965       322  TIP3  H1          -12.2535733220       -1.2201572769       -2.9828287895  CLST         322          1.0000000000
       966       322  TIP3  H2          -11.6666808943       -1.9943605615       -1.9026986487  CLST         322          1.0000000000
       967       323  TIP3  OH2          -1.0878035306        3.9944905830        4.3629001731  CLST         323          1.0000000000
       968       323  TIP3  H1           -0.9062239600        3.0958861159        4.7323027810  CLST         323          1.0000000000
       969       323  TIP3  H2           -1.0222000900        3.8913819482        3.4265497050  CLST         323          1.0000000000
       970       324  TIP3  OH2         -10.9695421861        6.2408050899        1.6924229775  CLST         324          1.0000000000
       971       324  TIP3  H1          -11.0149079642        5.3788952818        2.1664813237  CLST         324          1.0000000000
       972       324  TIP3  H2          -10.1784285469        6.6173895258        2.2533087687  CLST         324          1.0000000000
       973       325  TIP3  OH2          -4.6622169334        0.9465594319        3.7145100257  CLST         325          1.0000000000
       974       325  TIP3  H1           -5.6799303197        0.9236435205        3.7921694326  CLST         325          1.0000000000
       975       325  TIP3  H2           -4.6028805652        1.3900346499        2.8623515495  CLST         325          1.0000000000
       976       326  TIP3  OH2           9.1581177468        8.8078037716       -2.6856715013  CLST         326          1.0000000000
       977       326  TIP3  H1            8.8387306944        7.9480429299       -2.2770243524  CLST         326          1.0000000000
       978       326  TIP3  H2            8.4006599175        8.8449875922       -3.3000072651  CLST         326          1.0000000000
       979       327  TIP3  OH2          10.5326105248       -3.8735104825      -13.0351070770  CLST         327          1.0000000000
       980       327  TIP3  H1           10.4527455482       -3.2577149523      -13.7599931615  CLST         327          1.0000000000
       981       327  TIP3  H2           10.1072131984       -3.2496526356      -12.3468101932  CLST         327          1.0000000000
       982       328  TIP3  OH2           2.3785331725        6.9004090046       -9.7857376724  CLST         328          1.0000000000
       983       328  TIP3  H1            2.1090228472        6.0848400873       -9.8061420699  CLST         328          1.0000000000
       984       328  TIP3  H2            3.3057831614        6.6562426825       -9.2813592056  CLST         328          1.0000000000
       985       329  TIP3  OH2           1.4288269143      -11.5931114736       -2.1156428961  CLST         329          1.0000000000
       986       329  TIP3  H1            1.5270573720      -10.6789178479       -2.5510276572  CLST         329          1.0000000000
       987       329  TIP3  H2            2.2195545359      -11.5638792622       -1.5125654777  CLST         329          1.0000000000
       988       330  TIP3  OH2          -9.3914481253       -1.0837922239        3.4928774394  CLST         330          1.0000000000
       989       330  TIP3  H1           -9.6577215706       -2.0120703961        3.2316959849  CLST         330          1.0000000000
       990       330  TIP3  H2          -10.1240045513       -0.8528247386        4.0705493871  CLST         330          1.0000000000
       991       331  TIP3  OH2          12.2679534146        9.8098022762       -9.0066273254  CLST         331          1.0000000000
       992       331  TIP3  H1           13.0532766891        9.6609643573       -9.2474062954  CLST         331          1.0000000000
       993       331  TIP3  H2           12.4428079798        8.0385228445       -9.1998140593  CLST         331          1.0000000000
       994       332  TIP3  OH2          11.2926406767       -1.3905715561       -4.4796473354  CLST         332          1.0000000000
       995       332  TIP3  H1           12.0759262215       -1.6311123185       -5.1145244491  CLST         332          1.0000000000
       996       332  TIP3  H2           11.4608558963       -0.6930487981       -3.9889383293  CLST         332          1.0000000000
       997       333  TIP3  OH2          10.4995132816      -14.1224738585        7.7607354971  CLST         333          1.0000000000
       998       333  TIP3  H1            9.6353221138      -14.0494591249        8.0947114688  CLST         333          1.0000000000
       999       333  TIP3  H2           10.5311699018      -14.0676056461        6.8000543961  CLST         333          1.0000000000
      1000       334  TIP3  OH2         -10.5277837912       -9.4944605380        9.0896758026  CLST         334          1.0000000000
      1001       334  TIP3  H1          -11.3930339292       -9.7588325882        8.6952007731  CLST         334          1.0000000000
      1002       334  TIP3  H2           -9.9991437390       -9.9148721229        8.3507874655  CLST         334          1.0000000000
      1003       335  TIP3  OH2           6.7657713948       -9.8829959582        1.3863862011  CLST         335          1.0000000000
      1004       335  TIP3  H1            6.8087288514      -10.3378075347        2.2544284317  CLST         335          1.0000000000
      1005       335  TIP3  H2            5.7978186628       -9.9619335310        1.2053952241  CLST         335          1.0000000000
      1006       336  TIP3  OH2          -9.2257368464       -3.7704248226       -3.6202915716  CLST         336          1.0000000000
      1007       336  TIP3  H1           -9.1264112828       -4.6721525436       -4.1106260737  CLST         336          1.0000000000
      1008       336  TIP3  H2           -8.7550294164       -3.1256847697       -4.1981963788  CLST         336          1.0000000000
      1009       337  TIP3  OH2          -1.6147997278       -4.8031414939        8.1291012774  CLST         337          1.0000000000
      1010       337  TIP3  H1           -1.2843761460       -4.5459666851        9.0474364353  CLST         337          1.0000000000
      1011       337  TIP3  H2           -1.7739566380       -3.8003159630        7.9119745305  CLST         337          1.0000000000
      1012       338  TIP3  OH2          -0.5809553083        2.7468583665       10.6909903981  CLST         338          1.0000000000
      1013       338  TIP3  H1           -0.6041157631        2.4486893395        9.7320136325  CLST         338          1.0000000000
      1014       338  TIP3  H2            0.0865200288        2.1649110484       11.0168206216  CLST         338          1.0000000000
      1015       339  TIP3  OH2           7.8496302057        7.9868796583        2.7900863383  CLST         339          1.0000000000
      1016       339  TIP3  H1            7.4805126845        8.7561886510        3.3797662103  CLST         339          1.0000000000
      1017       339  TIP3  H2            7.1557886558        8.0318945654        2.0576918403  CLST         339          1.0000000000
      1018       340  TIP3  OH2          -4.7058107349      -11.5716514002      -11.2030187167  CLST         340          1.0000000000
      1019       340  TIP3  H1           -4.3838701795      -10.8191131604      -10.6363689587  CLST         340          1.0000000000
      1020       340  TIP3  H2           -4.6094489013      -12.2744629372      -10.5293612046  CLST         340          1.0000000000
      1021       341  TIP3  OH2          -6.7819329115        4.8753566104        9.4784089431  CLST         341          1.0000000000
      1022       341  TIP3  H1           -5.8216444214        4.6753242018        9.6092544987  CLST         341          1.0000000000
      1023       341  TIP3  H2           -7.1040798146        3.9901554534        9.7828486620  CLST         341          1.0000000000
      1024       342  TIP3  OH2          -4.4151941585      -10.8920303959       13.8901925008  CLST         342          1.0000000000
      1025       342  TIP3  H1           -5.3679850923      -11.0302791218       12.8037370415  CLST         342          1.0000000000
      1026       342  TIP3  H2           -5.0712768593      -10.7265271127       14.7859141052  CLST         342          1.0000000000
      1027       343  TIP3  OH2           1.3492762031       -8.9518355510       -9.7665875206  CLST         343          1.0000000000
      1028       343  TIP3  H1            1.2286040435       -8.0233788553      -10.0753173113  CLST         343          1.0000000000
      1029       343  TIP3  H2            1.7690638107       -9.2642507830      -10.6136022699  CLST         343          1.0000000000
      1030       344  TIP3  OH2           5.5176272638       -3.8219291361        6.3948020658  CLST         344          1.0000000000
      1031       344  TIP3  H1            5.0006297977       -4.4159802310        6.9882755321  CLST         344          1.0000000000
      1032       344  TIP3  H2            6.0919345237       -4.4936670328        5.9477619056  CLST         344          1.0000000000
      1033       345  TIP3  OH2          13.2717836038        7.3323530941        8.5469406654  CLST         345          1.0000000000
      1034       345  TIP3  H1           12.8103242922        5.9858045168        9.1522641484  CLST         345          1.0000000000
      1035       345  TIP3  H2           12.7894482241        7.5115614398       10.1322443717  CLST         345          1.0000000000
      1036       346  TIP3  OH2           9.5246425894        9.3806097980        0.8394400317  CLST         346          1.0000000000
      1037       346  TIP3  H1            9.7466894614       10.0873277019        1.4986081586  CLST         346          1.0000000000
      1038       346  TIP3  H2            9.0618189564        8.8131362711        1.4527891702  CLST         346          1.0000000000
      1039       347  TIP3  OH2          -4.9440023706        2.7525226897       -9.7200714101  CLST         347          1.0000000000
      1040       347  TIP3  H1           -5.7129504150        3.1742830025       -9.3192796145  CLST         347          1.0000000000
      1041       347  TIP3  H2           -4.3522857707        2.6564857291       -8.9644879376  CLST         347          1.0000000000
      1042       348  TIP3  OH2          -1.1456292909        6.2594150357        5.8019571499  CLST         348          1.0000000000
      1043       348  TIP3  H1           -1.3976441313        5.4420969603        5.2468717974  CLST         348          1.0000000000
      1044       348  TIP3  H2           -0.5295364428        6.6040742511        5.1016926535  CLST         348          1.0000000000
      1045       349  TIP3  OH2          -3.9957228803        5.3122205016       -2.6070763611  CLST         349          1.0000000000
      1046       349  TIP3  H1           -3.6625727859        4.9718488677       -3.4525333763  CLST         349          1.0000000000
      1047       349  TIP3  H2           -3.4183370727        6.1579667383       -2.5741272461  CLST         349          1.0000000000
      1048       350  TIP3  OH2          -2.5731256035        8.8872347597        4.9724516143  CLST         350          1.0000000000
      1049       350  TIP3  H1           -3.2180360421        8.5568395473        4.2833540977  CLST         350          1.0000000000
      1050       350  TIP3  H2           -2.2434407878        8.1586175923        5.4618781847  CLST         350          1.0000000000
      1051       351  TIP3  OH2           4.9247799448       -7.6336281434       -7.8166317299  CLST         351          1.0000000000
      1052       351  TIP3  H1            4.2673355611       -8.4138249689       -7.7334489541  CLST         351          1.0000000000
      1053       351  TIP3  H2            4.7381824482       -7.5366357632       -8.7845839171  CLST         351          1.0000000000
      1054       352  TIP3  OH2         -10.3183878095      -10.9878111495        1.5552185654  CLST         352          1.0000000000
      1055       352  TIP3  H1           -9.2845631250      -10.9230194768        1.6015290632  CLST         352          1.0000000000
      1056       352  TIP3  H2          -10.4817831147      -10.1014872197        0.9965763660  CLST         352          1.0000000000
      1057       353  TIP3  OH2          10.6864023599       -8.0684965054       -8.6688005691  CLST         353          1.0000000000
      1058       353  TIP3  H1            9.7396127265       -8.3026236619       -8.7853720678  CLST         353          1.0000000000
      1059       353  TIP3  H2           10.8999989212       -8.0988362979       -7.7276427713  CLST         353          1.0000000000
      1060       354  TIP3  OH2           6.7592682057      -10.7510138170        4.0656270363  CLST         354          1.0000000000
      1061       354  TIP3  H1            7.4390087826      -10.9999349893        4.7451667617  CLST         354          1.0000000000
      1062       354  TIP3  H2            6.4516658190       -9.8703189618        4.4732827260  CLST         354          1.0000000000
      1063       355  TIP3  OH2          -7.2739140098        9.0592270249       -8.6934870223  CLST         355          1.0000000000
      1064       355  TIP3  H1           -6.6215357346        9.7889746761       -8.7099480591  CLST         355          1.0000000000
      1065       355  TIP3  H2           -7.9933299397        9.5141070597       -9.1881892900  CLST         355          1.0000000000
      1066       356  TIP3  OH2          12.4764862345        0.9756407410       -1.9314233239  CLST         356          1.0000000000
      1067       356  TIP3  H1           11.5198466008        0.8365795903       -2.1356855410  CLST         356          1.0000000000
      1068       356  TIP3  H2           12.6757680829        0.5494353857       -1.1172981983  CLST         356          1.0000000000
      1069       357  TIP3  OH2          -0.3925145731       -0.5136752687       -2.0019122163  CLST         357          1.0000000000
      1070       357  TIP3  H1            0.4693169429       -0.9491550145       -2.2905011263  CLST         357          1.0000000000
      1071       357  TIP3  H2           -0.6423531157       -0.1653207036       -2.9209555517  CLST         357          1.0000000000
      1072       358  TIP3  OH2          -5.8003591406        7.0828412607       -7.5794081478  CLST         358          1.0000000000
      1073       358  TIP3  H1           -6.4427678202        7.5878403882       -8.1763618074  CLST         358          1.0000000000
      1074       358  TIP3  H2           -6.4519256950        6.6896622077       -6.9114097629  CLST         358          1.0000000000
      1075       359  TIP3  OH2          -4.8305052410       12.0308352634        6.0687500942  CLST         359          1.0000000000
      1076       359  TIP3  H1           -5.3743754168       11.9435404898        5.2044251619  CLST         359          1.0000000000
      1077       359  TIP3  H2           -3.8181269766       12.1327004016        5.7584819147  CLST         359          1.0000000000
      1078       360  TIP3  OH2          -6.8610140495        5.8818064766       -3.4066230135  CLST         360          1.0000000000
      1079       360  TIP3  H1           -7.1829735227        6.4531984921       -2.6847073481  CLST         360          1.0000000000
      1080       360  TIP3  H2           -5.9020849074        5.7639825921       -3.1895034023  CLST         360          1.0000000000
      1081       361  TIP3  OH2          -1.6342976286       -1.0753911579       10.1016380304  CLST         361          1.0000000000
      1082       361  TIP3  H1           -1.6109906539       -0.5562835449       10.9008972530  CLST         361          1.0000000000
      1083       361  TIP3  H2           -1.6837457525       -2.0200497566       10.4570886727  CLST         361          1.0000000000
      1084       362  TIP3  OH2         -10.6751569375        2.9397812758        0.4170495681  CLST         362          1.0000000000
      1085       362  TIP3  H1          -10.5472913921        3.4460146817       -0.4355768953  CLST         362          1.0000000000
      1086       362  TIP3  H2          -11.2710652328        2.2449482732        0.0058950811  CLST         362          1.0000000000
      1087       363  TIP3  OH2          10.4003974407        2.5183445604       10.3445055099  CLST         363          1.0000000000
      1088       363  TIP3  H1           10.6132200029        1.5872832446       10.1400141868  CLST         363          1.0000000000
      1089       363  TIP3  H2           11.1799712873        2.8354039650       10.5334243448  CLST         363          1.0000000000
      1090       364  TIP3  OH2           7.6621004156       -5.6559817934       -6.4724481167  CLST         364          1.0000000000
      1091       364  TIP3  H1            6.7865226633       -5.3454205001       -6.8385855465  CLST         364          1.0000000000
      1092       364  TIP3  H2            8.1661305269       -5.6447860172       -7.3593207100  CLST         364          1.0000000000
      1093       365  TIP3  OH2          -6.2386532105       -6.7463859503        2.6402362406  CLST         365          1.0000000000
      1094       365  TIP3  H1           -6.7373631529       -5.9473436747        2.4741819210  CLST         365          1.0000000000
      1095       365  TIP3  H2           -7.0347159449       -7.3212835833        2.8812832381  CLST         365          1.0000000000
      1096       366  TIP3  OH2           1.9720799100       -1.4893246442       -2.8337446395  CLST         366          1.0000000000
      1097       366  TIP3  H1            2.9575498810       -1.4932496423       -2.5766493399  CLST         366          1.0000000000
      1098       366  TIP3  H2            2.1199211546       -1.1056150873       -3.7434019261  CLST         366          1.0000000000
      1099       367  TIP3  OH2          -5.3115709535       11.8505473961       12.4234573387  CLST         367          1.0000000000
      1100       367  TIP3  H1           -6.2081235693       11.7462634255       12.1202807758  CLST         367          1.0000000000
      1101       367  TIP3  H2           -5.1583980328       12.3367908434       13.2772127825  CLST         367          1.0000000000
      1102       368  TIP3  OH2          -2.6741177021        6.6007957264        1.1105872026  CLST         368          1.0000000000
      1103       368  TIP3  H1           -2.7577276560        7.3411806291        0.4159325153  CLST         368          1.0000000000
      1104       368  TIP3  H2           -2.9278126688        7.1183059661        1.8997515831  CLST         368          1.0000000000
      1105       369  TIP3  OH2         -11.6414151813       -1.7108770857       -6.3023901997  CLST         369          1.0000000000
      1106       369  TIP3  H1          -10.7136459216       -2.0568143679       -6.3403766329  CLST         369          1.0000000000
      1107       369  TIP3  H2          -11.7557775295       -1.7625221014       -7.3049146774  CLST         369          1.0000000000
      1108       370  TIP3  OH2         -12.0231381494        5.4728215969      -11.7114654903  CLST         370          1.0000000000
      1109       370  TIP3  H1          -12.3085944327        4.9131930351      -12.5567758954  CLST         370          1.0000000000
      1110       370  TIP3  H2          -12.8082223315        5.4547378622      -11.2746518886  CLST         370          1.0000000000
      1111       371  TIP3  OH2           2.1416599167        8.0406363352        5.7992577760  CLST         371          1.0000000000
      1112       371  TIP3  H1            1.9949263935        7.6057885052        6.6797188475  CLST         371          1.0000000000
      1113       371  TIP3  H2            3.1239120988        8.1031983400        5.8437883537  CLST         371          1.0000000000
      1114       372  TIP3  OH2           8.0677624359       -7.6289907829        9.1660678394  CLST         372          1.0000000000
      1115       372  TIP3  H1            8.7640449680       -7.6733147284        8.4717048975  CLST         372          1.0000000000
      1116       372  TIP3  H2            8.5704745089       -7.8753389355        9.9790452994  CLST         372          1.0000000000
      1117       373  TIP3  OH2          11.1156964624       -0.3662877710        6.4266990169  CLST         373          1.0000000000
      1118       373  TIP3  H1           11.2471724347        0.3784022370        5.7965279141  CLST         373          1.0000000000
      1119       373  TIP3  H2           10.2784967462       -0.5275259699        6.0556199255  CLST         373          1.0000000000
      1120       374  TIP3  OH2          -9.5372736668        4.7486728108      -12.3700187233  CLST         374          1.0000000000
      1121       374  TIP3  H1           -9.5579336951        5.5473997079      -12.8970089046  CLST         374          1.0000000000
      1122       374  TIP3  H2          -10.4210253796        4.8983802460      -11.9499033061  CLST         374          1.0000000000
      1123       375  TIP3  OH2           9.8730125646       -5.4817198895       -2.6917220575  CLST         375          1.0000000000
      1124       375  TIP3  H1           10.0964974773       -5.0445771304       -3.5493484071  CLST         375          1.0000000000
      1125       375  TIP3  H2           10.3093488768       -6.3310164022       -2.8167875331  CLST         375          1.0000000000
      1126       376  TIP3  OH2          -2.2348355660      -11.1268197971       12.2169986286  CLST         376          1.0000000000
      1127       376  TIP3  H1           -2.9338580549      -11.2431201767       13.0286278501  CLST         376          1.0000000000
      1128       376  TIP3  H2           -2.9533903460      -11.1786581958       11.5579503232  CLST         376          1.0000000000
      1129       377  TIP3  OH2         -10.0037613851       12.8081051302       10.2689248673  CLST         377          1.0000000000
      1130       377  TIP3  H1          -11.1616102290       13.8597963042        9.1779563347  CLST         377          1.0000000000
      1131       377  TIP3  H2           -9.8234827209       13.6555809719        8.1793167312  CLST         377          1.0000000000
      1132       378  TIP3  OH2           2.3656175263       -7.8958724642        7.2366811827  CLST         378          1.0000000000
      1133       378  TIP3  H1            2.2171359322       -6.9722169880        6.9904688303  CLST         378          1.0000000000
      1134       378  TIP3  H2            1.7758771508       -8.0721731558        7.9927688388  CLST         378          1.0000000000
      1135       379  TIP3  OH2          -9.6040406759        9.3312994667       -1.2507791847  CLST         379          1.0000000000
      1136       379  TIP3  H1           -9.1521150836        9.4354465321       -0.4134757325  CLST         379          1.0000000000
      1137       379  TIP3  H2           -9.7233040002       10.1909316851       -1.6712944696  CLST         379          1.0000000000
      1138       380  TIP3  OH2           2.9282761812       -4.1088513216      -11.2442625369  CLST         380          1.0000000000
      1139       380  TIP3  H1            2.5618187581       -3.2780893669      -11.6821513096  CLST         380          1.0000000000
      1140       380  TIP3  H2            3.3388134609       -4.4269318575      -12.0994722856  CLST         380          1.0000000000
      1141       381  TIP3  OH2          10.3292407733        4.2856965995        3.6182654857  CLST         381          1.0000000000
      1142       381  TIP3  H1            9.6775291014        4.8852504327        3.9800703335  CLST         381          1.0000000000
      1143       381  TIP3  H2           11.0413145613        4.9729081336        3.5141012484  CLST         381          1.0000000000
      1144       382  TIP3  OH2           2.0615554426       -5.4158731884        5.6623685606  CLST         382          1.0000000000
      1145       382  TIP3  H1            2.7441271409       -5.2307528717        6.3407088334  CLST         382          1.0000000000
      1146       382  TIP3  H2            2.6980657976       -5.9850988920        5.1338288207  CLST         382          1.0000000000
      1147       383  TIP3  OH2          10.2596591310        8.9248957229        4.8132850027  CLST         383          1.0000000000
      1148       383  TIP3  H1            9.5138151848        8.9528734652        4.1821008859  CLST         383          1.0000000000
      1149       383  TIP3  H2           10.2396004232        9.8713219083        5.0687702177  CLST         383          1.0000000000
      1150       384  TIP3  OH2          -3.2701453460       -1.8270543497       -8.0130529639  CLST         384          1.0000000000
      1151       384  TIP3  H1           -2.7582620808       -2.6621944539       -8.2239493960  CLST         384          1.0000000000
      1152       384  TIP3  H2           -2.6383150549       -1.4706517824       -7.3519641206  CLST         384          1.0000000000
      1153       385  TIP3  OH2           3.7530222813      -11.7093533639       -0.7008550291  CLST         385          1.0000000000
      1154       385  TIP3  H1            4.6224667486      -12.2610760829       -0.5750719921  CLST         385          1.0000000000
      1155       385  TIP3  H2            3.8222454855      -10.9932970299       -0.0623868809  CLST         385          1.0000000000
      1156       386  TIP3  OH2          -4.1256800703        9.4235692970       -6.0489824825  CLST         386          1.0000000000
      1157       386  TIP3  H1           -4.6650738387        8.6601470764       -6.3425321930  CLST         386          1.0000000000
      1158       386  TIP3  H2           -4.0626852879        9.8559666383       -6.9555404823  CLST         386          1.0000000000
      1159       387  TIP3  OH2          -9.7677148477       10.5557772936        2.8282825693  CLST         387          1.0000000000
      1160       387  TIP3  H1          -10.6078812272       10.3796016915        2.2579589488  CLST         387          1.0000000000
      1161       387  TIP3  H2           -9.1192687233       10.1953704913        2.2135479760  CLST         387          1.0000000000
      1162       388  TIP3  OH2          -1.8678527382      -12.2405600250        5.8491096094  CLST         388          1.0000000000
      1163       388  TIP3  H1           -2.3522957488      -11.3871925970        5.6256481079  CLST         388          1.0000000000
      1164       388  TIP3  H2           -1.7597530603      -12.0936185427        6.8407183683  CLST         388          1.0000000000
      1165       389  TIP3  OH2          -8.2038859833        3.4913805466       -3.5486812818  CLST         389          1.0000000000
      1166       389  TIP3  H1           -7.6629999742        4.3150568484       -3.4928492429  CLST         389          1.0000000000
      1167       389  TIP3  H2           -8.9845445054        3.9121506837       -3.1032471269  CLST         389          1.0000000000
      1168       390  TIP3  OH2          -5.8168252403       -3.8948992267        4.5840444227  CLST         390          1.0000000000
      1169       390  TIP3  H1           -5.3718200361       -3.0117206282        4.4792034813  CLST         390          1.0000000000
      1170       390  TIP3  H2           -5.0318438285       -4.3979072684        4.3625992618  CLST         390          1.0000000000
      1171       391  TIP3  OH2          -8.7727030400       -8.7138727240       -6.1930378645  CLST         391          1.0000000000
      1172       391  TIP3  H1           -9.4947440433       -9.1164761871       -6.7474296357  CLST         391          1.0000000000
      1173       391  TIP3  H2           -8.3090002685       -9.6029588515       -5.9297123231  CLST         391          1.0000000000
      1174       392  TIP3  OH2           1.0993603419       -2.1872124644       10.2215089244  CLST         392          1.0000000000
      1175       392  TIP3  H1            0.6533501124       -3.0147223379       10.0412135090  CLST         392          1.0000000000
      1176       392  TIP3  H2            0.4118708690       -1.4940794103       10.0778725219  CLST         392          1.0000000000
      1177       393  TIP3  OH2          10.6978776499      -12.2085601314       -0.6241444566  CLST         393          1.0000000000
      1178       393  TIP3  H1           11.4633865533      -10.6831707899       -0.5925248453  CLST         393          1.0000000000
      1179       393  TIP3  H2           11.6632725175      -12.2012772356       -0.9344209923  CLST         393          1.0000000000
      1180       394  TIP3  OH2           0.6229268971       11.6560144799       -8.3460456755  CLST         394          1.0000000000
      1181       394  TIP3  H1            1.0203895340       11.9747695565       -7.4879730419  CLST         394          1.0000000000
      1182       394  TIP3  H2            0.7991948625       10.6862057425       -8.1450095187  CLST         394          1.0000000000
      1183       395  TIP3  OH2           6.6509582086        7.5650829131       -4.4555079105  CLST         395          1.0000000000
      1184       395  TIP3  H1            5.7837796089        8.1228909537       -4.5239361407  CLST         395          1.0000000000
      1185       395  TIP3  H2            6.5518416941        7.0718759555       -5.2634304215  CLST         395          1.0000000000
      1186       396  TIP3  OH2          -1.0572740153      -10.0400390290       -9.2617446108  CLST         396          1.0000000000
      1187       396  TIP3  H1           -1.0304576371      -10.0753219524       -8.2681384931  CLST         396          1.0000000000
      1188       396  TIP3  H2           -0.1341016813       -9.6932393505       -9.4173314490  CLST         396          1.0000000000
      1189       397  TIP3  OH2          11.4283854838        7.3855320190       -8.8261779473  CLST         397          1.0000000000
      1190       397  TIP3  H1           11.3296551419        6.6057166087       -8.2163102323  CLST         397          1.0000000000
      1191       397  TIP3  H2           10.4375630346        7.7233749252       -8.6778834392  CLST         397          1.0000000000
      1192       398  TIP3  OH2          10.7028688799        7.8352214296       -4.8572374593  CLST         398          1.0000000000
      1193       398  TIP3  H1           10.2931231355        8.4575114473       -4.2243178127  CLST         398          1.0000000000
      1194       398  TIP3  H2           11.3729488573        7.4050526803       -4.2589370050  CLST         398          1.0000000000
      1195       399  TIP3  OH2           1.9240523985       11.2052544874        4.8632354652  CLST         399          1.0000000000
      1196       399  TIP3  H1            1.6987592401       10.2742176381        4.9854626063  CLST         399          1.0000000000
      1197       399  TIP3  H2            2.2831330568       11.3895683337        5.7317907504  CLST         399          1.0000000000
      1198       400  TIP3  OH2           3.9880778662       -2.9899504382       -5.0958738903  CLST         400          1.0000000000
      1199       400  TIP3  H1            4.7672552736       -3.0998326533       -4.4966812109  CLST         400          1.0000000000
      1200       400  TIP3  H2            4.2866149547       -3.6075527040       -5.8567195472  CLST         400          1.0000000000
      1201       401  TIP3  OH2         -14.7158780932        9.6090043786        5.2744174408  CLST         401          1.0000000000
      1202       401  TIP3  H1          -13.6545199611       10.6716254738        6.7716989190  CLST         401          1.0000000000
      1203       401  TIP3  H2          -14.1716454933       10.2532764862        7.3865678292  CLST         401          1.0000000000
      1204       402  TIP3  OH2           1.7789850728       -1.6038027425       12.6848751520  CLST         402          1.0000000000
      1205       402  TIP3  H1            2.3475408924       -2.2410906371       13.1549426407  CLST         402          1.0000000000
      1206       402  TIP3  H2            1.6356171896       -2.0808886969       11.8414496533  CLST         402          1.0000000000
      1207       403  TIP3  OH2          -1.9778442972       -6.9983515946       -0.7284143058  CLST         403          1.0000000000
      1208       403  TIP3  H1           -1.8350905130       -7.6012401858       -1.8640415789  CLST         403          1.0000000000
      1209       403  TIP3  H2           -2.0967561221       -8.2728941527       -1.1341419149  CLST         403          1.0000000000
      1210       404  TIP3  OH2          -4.7780684017       -2.5092100537        9.0940405192  CLST         404          1.0000000000
      1211       404  TIP3  H1           -4.9769288722       -2.7580906859       10.0050092004  CLST         404          1.0000000000
      1212       404  TIP3  H2           -5.2304843430       -3.2953978944        8.6495130809  CLST         404          1.0000000000
      1213       405  TIP3  OH2         -11.8069196495        7.0912136645       11.1781773612  CLST         405          1.0000000000
      1214       405  TIP3  H1          -11.7253558530        6.1271818815       10.9194492611  CLST         405          1.0000000000
      1215       405  TIP3  H2          -12.4707954235        6.9639544931       11.8484508571  CLST         405          1.0000000000
      1216       406  TIP3  OH2           1.0976868902        7.9432445119      -12.3169916586  CLST         406          1.0000000000
      1217       406  TIP3  H1            1.1543409153        8.9572620659      -12.4153282671  CLST         406          1.0000000000
      1218       406  TIP3  H2            1.5654336712        7.9623618438      -11.4169169341  CLST         406          1.0000000000
      1219       407  TIP3  OH2          10.4961924614      -13.1462239105        5.0904526569  CLST         407          1.0000000000
      1220       407  TIP3  H1           10.4474739014      -13.2334119173        4.1219745614  CLST         407          1.0000000000
      1221       407  TIP3  H2           11.3423207473      -12.5527377532        5.2329305722  CLST         407          1.0000000000
      1222       408  TIP3  OH2          -3.0522261899      -11.6819866563        1.9187894114  CLST         408          1.0000000000
      1223       408  TIP3  H1           -2.2833945026      -11.0538508789        1.9235913979  CLST         408          1.0000000000
      1224       408  TIP3  H2           -2.6582462637      -12.5321955358        2.1558569761  CLST         408          1.0000000000
      1225       409  TIP3  OH2           1.0805093452       -9.4449771075        9.7408085280  CLST         409          1.0000000000
      1226       409  TIP3  H1            0.6530895008       -9.0754519646       10.5460424101  CLST         409          1.0000000000
      1227       409  TIP3  H2            1.5677863652      -10.1046483070       10.2723335119  CLST         409          1.0000000000
      1228       410  TIP3  OH2           9.9351273038       -7.1558002107       -5.3179988826  CLST         410          1.0000000000
      1229       410  TIP3  H1            9.0507614755       -6.9086700527       -5.6289543633  CLST         410          1.0000000000
      1230       410  TIP3  H2           10.2944173614       -6.2954592216       -5.6209716090  CLST         410          1.0000000000
      1231       411  TIP3  OH2         -10.2516604594       -2.2577370680       -1.5931050226  CLST         411          1.0000000000
      1232       411  TIP3  H1           -9.6303743314       -1.8967932360       -0.9834226255  CLST         411          1.0000000000
      1233       411  TIP3  H2           -9.8331234022       -2.8762779242       -2.2050828999  CLST         411          1.0000000000
      1234       412  TIP3  OH2           6.6918953478      -10.5649947379      -11.8711650575  CLST         412          1.0000000000
      1235       412  TIP3  H1            5.9864935199      -10.9698625837      -11.3029111657  CLST         412          1.0000000000
      1236       412  TIP3  H2            7.4862294967      -11.2108239453      -11.7450846002  CLST         412          1.0000000000
      1237       413  TIP3  OH2           7.0807107204       13.1493188667        0.2849140275  CLST         413          1.0000000000
      1238       413  TIP3  H1            7.6400614154       12.4945596054       -0.0673156889  CLST         413          1.0000000000
      1239       413  TIP3  H2            7.8039967259       13.6942814096        0.7157348816  CLST         413          1.0000000000
      1240       414  TIP3  OH2           1.4163933684       -2.2457861821      -12.4714451459  CLST         414          1.0000000000
      1241       414  TIP3  H1            0.5370454641       -1.8780343871      -12.1076884410  CLST         414          1.0000000000
      1242       414  TIP3  H2            1.3658507359       -2.3582462296      -13.3756726543  CLST         414          1.0000000000
      1243       415  TIP3  OH2           4.0071921957        5.3175566940       -8.2252067575  CLST         415          1.0000000000
      1244       415  TIP3  H1            3.4215969808        4.0942991726       -8.6209147311  CLST         415          1.0000000000
      1245       415  TIP3  H2            4.6527728822        4.2311965307       -8.5666871728  CLST         415          1.0000000000
      1246       416  TIP3  OH2           5.7004840635       12.2154505959       -7.7072473671  CLST         416          1.0000000000
      1247       416  TIP3  H1            5.2636515786       12.9069959779       -8.1266405822  CLST         416          1.0000000000
      1248       416  TIP3  H2            6.5585863897       12.2312129069       -8.1589916920  CLST         416          1.0000000000
      1249       417  TIP3  OH2          12.5779440420      -11.3512004019        2.6645263751  CLST         417          1.0000000000
      1250       417  TIP3  H1           11.7598171825      -11.8026744541        2.3652397261  CLST         417          1.0000000000
      1251       417  TIP3  H2           12.7340214683      -10.5598209507        2.2174084951  CLST         417          1.0000000000
      1252       418  TIP3  OH2          -9.1353943349       -1.5701256281        8.3198335898  CLST         418          1.0000000000
      1253       418  TIP3  H1           -8.6069635459       -1.2262414428        7.5346101788  CLST         418          1.0000000000
      1254       418  TIP3  H2           -8.9903087084       -0.7643941736        8.8746950426  CLST         418          1.0000000000
      1255       419  TIP3  OH2          13.6917423881        0.3737986609       -6.0180199537  CLST         419          1.0000000000
      1256       419  TIP3  H1           13.0872084135        0.7646990593       -5.3273037137  CLST         419          1.0000000000
      1257       419  TIP3  H2           14.4468536709        0.8956024340       -5.8088136675  CLST         419          1.0000000000
      1258       420  TIP3  OH2          -8.2837271052       -8.1547751589        3.4389883229  CLST         420          1.0000000000
      1259       420  TIP3  H1           -9.0174729413       -7.6577101993        2.9773278792  CLST         420          1.0000000000
      1260       420  TIP3  H2           -8.7316138810       -9.0203099728        3.4828683098  CLST         420          1.0000000000
      1261       421  TIP3  OH2           3.4913383786       -6.3764511722      -13.3819982692  CLST         421          1.0000000000
      1262       421  TIP3  H1            4.4058174578       -6.5578325826      -13.1593758211  CLST         421          1.0000000000
      1263       421  TIP3  H2            3.1719925016       -7.3048835706      -13.6196973857  CLST         421          1.0000000000
      1264       422  TIP3  OH2          -1.8665569813       -9.4236016731       -1.7120528777  CLST         422          1.0000000000
      1265       422  TIP3  H1           -1.2717831478      -10.2509120254       -1.8289542669  CLST         422          1.0000000000
      1266       422  TIP3  H2           -2.7231206427      -10.0319106962       -1.8220151265  CLST         422          1.0000000000
      1267       423  TIP3  OH2           1.7458322769        4.8327167824       -4.0793961820  CLST         423          1.0000000000
      1268       423  TIP3  H1            2.5152703589        5.1921415223       -4.6514940897  CLST         423          1.0000000000
      1269       423  TIP3  H2            2.2255142773        4.4231760143       -3.3308285625  CLST         423          1.0000000000
      1270       424  TIP3  OH2          -8.8646507827        4.3891232978        4.4080922595  CLST         424          1.0000000000
      1271       424  TIP3  H1           -8.6577612700        3.6845285848        3.7723224570  CLST         424          1.0000000000
      1272       424  TIP3  H2           -8.1337890065        5.0648187072        4.4024076956  CLST         424          1.0000000000
      1273       425  TIP3  OH2           8.1755775327      -12.5908818271        8.4010989581  CLST         425          1.0000000000
      1274       425  TIP3  H1            8.3746798426      -12.4137962809        7.4347730029  CLST         425          1.0000000000
      1275       425  TIP3  H2            7.6172698303      -11.7705815445        8.4362864469  CLST         425          1.0000000000
      1276       426  TIP3  OH2           8.1862481954        2.1339304099        8.2091222566  CLST         426          1.0000000000
      1277       426  TIP3  H1            8.8306882201        1.7433154739        8.7986747385  CLST         426          1.0000000000
      1278       426  TIP3  H2            8.6141592983        3.0147354735        8.1082991286  CLST         426          1.0000000000
      1279       427  TIP3  OH2          11.3229090282        7.4759755400       11.1133763447  CLST         427          1.0000000000
      1280       427  TIP3  H1           10.9313072008        7.9748235802       11.8353826883  CLST         427          1.0000000000
      1281       427  TIP3  H2           10.5003479163        6.9586160610       10.8629162468  CLST         427          1.0000000000
      1282       428  TIP3  OH2          12.4917483477        7.6375807271        1.1146122193  CLST         428          1.0000000000
      1283       428  TIP3  H1           12.2096477493        8.2778038021        0.4149526224  CLST         428          1.0000000000
      1284       428  TIP3  H2           13.4184135982        7.6507454340        0.9244604213  CLST         428          1.0000000000
      1285       429  TIP3  OH2          11.9051694893       -9.7620904764       -0.7261346222  CLST         429          1.0000000000
      1286       429  TIP3  H1           12.3997176297       -9.3213234319        0.1535089347  CLST         429          1.0000000000
      1287       429  TIP3  H2           11.5938824445       -9.1355219571       -1.4568504273  CLST         429          1.0000000000
      1288       430  TIP3  OH2           9.6553512081       -6.6014155834        3.6660553147  CLST         430          1.0000000000
      1289       430  TIP3  H1            9.7148321563       -7.0573985552        2.7737830348  CLST         430          1.0000000000
      1290       430  TIP3  H2           10.5659408791       -6.2205121620        3.6393699755  CLST         430          1.0000000000
      1291       431  TIP3  OH2         -12.7040230259        9.4303347738       -2.5258887532  CLST         431          1.0000000000
      1292       431  TIP3  H1          -14.0266457194        9.2194825119       -2.5446124934  CLST         431          1.0000000000
      1293       431  TIP3  H2          -13.4224822512        9.1502943613       -1.6784130124  CLST         431          1.0000000000
      1294       432  TIP3  OH2           5.6223341428        8.5012194654       -9.9473373824  CLST         432          1.0000000000
      1295       432  TIP3  H1            5.8461862265        8.9185822444       -9.0649045377  CLST         432          1.0000000000
      1296       432  TIP3  H2            4.7416841548        8.9233599335      -10.0797285962  CLST         432          1.0000000000
      1297       433  TIP3  OH2          -0.7940231245        8.0278695932        7.7542310979  CLST         433          1.0000000000
      1298       433  TIP3  H1           -1.5739868273        8.5009141094        8.1419287157  CLST         433          1.0000000000
      1299       433  TIP3  H2           -1.1780678304        7.3950321151        7.1193679804  CLST         433          1.0000000000
      1300       434  TIP3  OH2          -7.3738743214        0.8749895478        3.8224393256  CLST         434          1.0000000000
      1301       434  TIP3  H1           -7.7810317711        1.6083165129        3.2674547389  CLST         434          1.0000000000
      1302       434  TIP3  H2           -8.0538403862        0.1820069784        3.5284581648  CLST         434          1.0000000000
      1303       435  TIP3  OH2           9.8368680416       -0.3492701474       -7.1667260153  CLST         435          1.0000000000
      1304       435  TIP3  H1            9.9793102523       -0.4703968280       -6.2649261681  CLST         435          1.0000000000
      1305       435  TIP3  H2           10.3892157441        0.3155046742       -7.4957294380  CLST         435          1.0000000000
      1306       436  TIP3  OH2           3.7593976558       10.6503375169       -9.1484161254  CLST         436          1.0000000000
      1307       436  TIP3  H1            4.2159562533       11.2692877152       -8.5382953814  CLST         436          1.0000000000
      1308       436  TIP3  H2            2.9950443150       10.4060572414       -8.7410528897  CLST         436          1.0000000000
      1309       437  TIP3  OH2          -8.3146523273       -0.9119881355       -7.8610931421  CLST         437          1.0000000000
      1310       437  TIP3  H1           -8.6557800963       -0.4819087650       -8.6473376965  CLST         437          1.0000000000
      1311       437  TIP3  H2           -7.3643336598       -0.6139374326       -7.8981061454  CLST         437          1.0000000000
      1312       438  TIP3  OH2          -3.4015043320        5.7030399702       -8.2699414552  CLST         438          1.0000000000
      1313       438  TIP3  H1           -4.2747603564        6.0799391247       -8.0532122976  CLST         438          1.0000000000
      1314       438  TIP3  H2           -3.3105104230        6.0798761326       -9.2119841948  CLST         438          1.0000000000
      1315       439  TIP3  OH2          13.9653101422        1.6343347084       -4.0179839641  CLST         439          1.0000000000
      1316       439  TIP3  H1           13.4611719655        2.5426414105       -4.1861923209  CLST         439          1.0000000000
      1317       439  TIP3  H2           13.8417009788        1.5230348405       -3.1322543212  CLST         439          1.0000000000
      1318       440  TIP3  OH2           1.0227756428      -12.9549821181      -11.1444124001  CLST         440          1.0000000000
      1319       440  TIP3  H1           -0.1142035697      -12.5417141870      -10.9920786351  CLST         440          1.0000000000
      1320       440  TIP3  H2            0.8754378920      -13.6229818413      -11.6328960448  CLST         440          1.0000000000
      1321       441  TIP3  OH2          -1.6796560759       -4.2270550582        3.2668340621  CLST         441          1.0000000000
      1322       441  TIP3  H1           -1.9050518205       -3.3260016567        3.5726406768  CLST         441          1.0000000000
      1323       441  TIP3  H2           -1.4070569054       -4.5633213154        4.1784979410  CLST         441          1.0000000000
      1324       442  TIP3  OH2           3.3904436906       -9.8203866004       -8.0288030425  CLST         442          1.0000000000
      1325       442  TIP3  H1            3.9766822619      -10.2196045113       -8.7346593391  CLST         442          1.0000000000
      1326       442  TIP3  H2            2.5500668050       -9.5813574474       -8.4793909693  CLST         442          1.0000000000
      1327       443  TIP3  OH2           1.1845028481       10.5801501188      -12.7845088478  CLST         443          1.0000000000
      1328       443  TIP3  H1            1.6127226745       11.2762484890      -12.1915507822  CLST         443          1.0000000000
      1329       443  TIP3  H2            1.5138908042       10.6530217095      -13.5641478357  CLST         443          1.0000000000
      1330       444  TIP3  OH2          -7.8280166923        1.4021267095       -1.6801631940  CLST         444          1.0000000000
      1331       444  TIP3  H1           -7.9081830880        2.1655710318       -2.3317299318  CLST         444          1.0000000000
      1332       444  TIP3  H2           -7.4534328061        1.9929344549       -0.9996463793  CLST         444          1.0000000000
      1333       445  TIP3  OH2         -11.3147666550       -5.1249387542        6.1411865146  CLST         445          1.0000000000
      1334       445  TIP3  H1          -11.5511171219       -4.1509757673        5.9585432052  CLST         445          1.0000000000
      1335       445  TIP3  H2          -11.4188903224       -5.1133267405        7.0995942509  CLST         445          1.0000000000
      1336       446  TIP3  OH2          -2.9509619002        4.5903094970       -5.3113736166  CLST         446          1.0000000000
      1337       446  TIP3  H1           -3.1975713586        5.0018123405       -6.1856678187  CLST         446          1.0000000000
      1338       446  TIP3  H2           -2.1139271605        5.1236354490       -5.1578213219  CLST         446          1.0000000000
      1339       447  TIP3  OH2          -4.8692972349      -12.8392875002       -3.6520993485  CLST         447          1.0000000000
      1340       447  TIP3  H1           -5.5920829536      -13.3074910043       -3.4396080096  CLST         447          1.0000000000
      1341       447  TIP3  H2           -4.5313947964      -12.3742706666       -2.8343162225  CLST         447          1.0000000000
      1342       448  TIP3  OH2           7.2354724355        9.6633492667        4.7011649968  CLST         448          1.0000000000
      1343       448  TIP3  H1            7.4031205588        9.4617550854        5.6692178222  CLST         448          1.0000000000
      1344       448  TIP3  H2            6.5119322011       10.3548243728        4.8369758674  CLST         448          1.0000000000
      1345       449  TIP3  OH2           4.2345300918        5.1029437804        8.5764754316  CLST         449          1.0000000000
      1346       449  TIP3  H1            4.9044802856        4.5525159877        9.0860831804  CLST         449          1.0000000000
      1347       449  TIP3  H2            4.1469008936        4.5358312504        7.7936923998  CLST         449          1.0000000000
      1348       450  TIP3  OH2          -3.9519657231        0.2657125840       -2.0371898549  CLST         450          1.0000000000
      1349       450  TIP3  H1           -3.5513914581        1.0118200963       -2.4681588694  CLST         450          1.0000000000
      1350       450  TIP3  H2           -3.1508949899       -0.0736143271       -1.5376033968  CLST         450          1.0000000000
      1351       451  TIP3  OH2          13.2618273655       -1.4626440177       -5.8008049835  CLST         451          1.0000000000
      1352       451  TIP3  H1           13.8174613653       -2.1171554614       -5.3335047904  CLST         451          1.0000000000
      1353       451  TIP3  H2           13.8949394699       -0.7570832142       -5.8738555645  CLST         451          1.0000000000
      1354       452  TIP3  OH2           8.6284123757        4.8926991028        8.0559209650  CLST         452          1.0000000000
      1355       452  TIP3  H1            7.8511793144        5.4191747184        7.7950596524  CLST         452          1.0000000000
      1356       452  TIP3  H2            9.2976904366        5.3712334275        7.5114888524  CLST         452          1.0000000000
      1357       453  TIP3  OH2           6.9727816080        2.6482819915       -6.1231958421  CLST         453          1.0000000000
      1358       453  TIP3  H1            6.0269822622        2.3716700460       -5.6720606421  CLST         453          1.0000000000
      1359       453  TIP3  H2            6.5001028592        2.7730201813       -7.0430177527  CLST         453          1.0000000000
      1360       454  TIP3  OH2           1.1626797234        5.2681204227        2.0585219702  CLST         454          1.0000000000
      1361       454  TIP3  H1            0.2346997449        4.9855479414        1.9852369443  CLST         454          1.0000000000
      1362       454  TIP3  H2            1.0159296065        5.9800632757        2.7168937912  CLST         454          1.0000000000
      1363       455  TIP3  OH2          -1.0815414651        0.7704053805      -10.3871382472  CLST         455          1.0000000000
      1364       455  TIP3  H1           -1.5944951038        1.0956109903       -9.6237965178  CLST         455          1.0000000000
      1365       455  TIP3  H2           -0.7872276191        1.6683034729      -10.6497532073  CLST         455          1.0000000000
      1366       456  TIP3  OH2           5.2360319645       11.1820350849        5.2359617712  CLST         456          1.0000000000
      1367       456  TIP3  H1            4.7062029948       11.5004542641        4.4716544535  CLST         456          1.0000000000
      1368       456  TIP3  H2            4.5764290538       11.1816606119        5.9617672465  CLST         456          1.0000000000
      1369       457  TIP3  OH2          -4.9140416835       -7.6887966833        4.7578278009  CLST         457          1.0000000000
      1370       457  TIP3  H1           -5.6456879720       -8.1047493070        5.1982459554  CLST         457          1.0000000000
      1371       457  TIP3  H2           -5.2841491088       -7.2130860451        4.0269097460  CLST         457          1.0000000000
      1372       458  TIP3  OH2           8.0392116510       -6.6326679028      -11.2133412342  CLST         458          1.0000000000
      1373       458  TIP3  H1            8.9846028671       -6.4409932773      -11.5616700129  CLST         458          1.0000000000
      1374       458  TIP3  H2            7.9587555107       -5.7216524329      -10.7683843042  CLST         458          1.0000000000
      1375       459  TIP3  OH2           6.5354243544      -10.0098852968       -8.0256323402  CLST         459          1.0000000000
      1376       459  TIP3  H1            6.0878879345       -9.1677954545       -7.7174630387  CLST         459          1.0000000000
      1377       459  TIP3  H2            7.2786995488       -9.4753119466       -8.5248007752  CLST         459          1.0000000000
      1378       460  TIP3  OH2           9.1272316601       -2.1524876255       -2.8841780352  CLST         460          1.0000000000
      1379       460  TIP3  H1            9.7723772438       -2.6470442996       -2.4443717243  CLST         460          1.0000000000
      1380       460  TIP3  H2            9.7291843101       -1.6857423908       -3.5282576044  CLST         460          1.0000000000
      1381       461  TIP3  OH2          -1.4177595355      -12.5569025645       -5.2653385086  CLST         461          1.0000000000
      1382       461  TIP3  H1           -0.6114672610      -12.7181869866       -5.8282352467  CLST         461          1.0000000000
      1383       461  TIP3  H2           -0.9847217027      -12.9753484603       -4.3945134375  CLST         461          1.0000000000
      1384       462  TIP3  OH2           0.1289054727        5.4359400158      -12.7895405453  CLST         462          1.0000000000
      1385       462  TIP3  H1            0.3112057752        6.4201732954      -12.6964202642  CLST         462          1.0000000000
      1386       462  TIP3  H2            1.0376768007        5.2803451078      -13.0182241942  CLST         462          1.0000000000
      1387       463  TIP3  OH2          -1.7107433843        1.7845474883       -7.9489670457  CLST         463          1.0000000000
      1388       463  TIP3  H1           -1.5515716029        0.9633142684       -7.3734884054  CLST         463          1.0000000000
      1389       463  TIP3  H2           -2.6971235967        1.8404443088       -7.7244854724  CLST         463          1.0000000000
      1390       464  TIP3  OH2          -6.8221480279        6.1656872445        4.2596352589  CLST         464          1.0000000000
      1391       464  TIP3  H1           -6.1332136912        5.7688158215        4.7700296179  CLST         464          1.0000000000
      1392       464  TIP3  H2           -7.1748494572        6.8576527336        4.9370262657  CLST         464          1.0000000000
      1393       465  TIP3  OH2          -4.6472953601      -12.3321099577        6.3892464224  CLST         465          1.0000000000
      1394       465  TIP3  H1           -3.7891807131      -12.7315965081        6.2716402581  CLST         465          1.0000000000
      1395       465  TIP3  H2           -4.3255957325      -11.3795639349        6.3558138132  CLST         465          1.0000000000
      1396       466  TIP3  OH2          -2.3423060002        9.3384228926       -4.1757647338  CLST         466          1.0000000000
      1397       466  TIP3  H1           -3.0499157405        9.3859140073       -4.8687677997  CLST         466          1.0000000000
      1398       466  TIP3  H2           -2.5146653275       10.1369947245       -3.6443955427  CLST         466          1.0000000000
      1399       467  TIP3  OH2           8.4573712106        6.0629823418        4.7059710910  CLST         467          1.0000000000
      1400       467  TIP3  H1            8.8961048632        6.6576499841        5.3882887912  CLST         467          1.0000000000
      1401       467  TIP3  H2            8.0837882638        6.7149536346        4.0757627043  CLST         467          1.0000000000
      1402       468  TIP3  OH2          -0.4230005286      -12.4707848762       10.3698356118  CLST         468          1.0000000000
      1403       468  TIP3  H1           -0.8646425714      -12.2023285419       11.2121710851  CLST         468          1.0000000000
      1404       468  TIP3  H2            0.5302627248      -12.3873453621       10.5505444670  CLST         468          1.0000000000
      1405       469  TIP3  OH2           5.4903290062        8.3880858215       14.1065888951  CLST         469          1.0000000000
      1406       469  TIP3  H1            6.3527826476        8.7390551524       13.8095947585  CLST         469          1.0000000000
      1407       469  TIP3  H2            5.0031588403        9.0116675537       13.6942856887  CLST         469          1.0000000000
      1408       470  TIP3  OH2         -11.1257007781       12.8084982913        0.4350920181  CLST         470          1.0000000000
      1409       470  TIP3  H1          -11.2268699615       12.9132550897       -0.5317972517  CLST         470          1.0000000000
      1410       470  TIP3  H2          -11.4795915064       11.8971813052        0.5303191866  CLST         470          1.0000000000
      1411       471  TIP3  OH2          -4.1525208613        9.5848855076       -9.0420224786  CLST         471          1.0000000000
      1412       471  TIP3  H1           -4.1998361343        8.5806527502       -9.0571622004  CLST         471          1.0000000000
      1413       471  TIP3  H2           -4.4880445689        9.7486729291       -9.9766365482  CLST         471          1.0000000000
      1414       472  TIP3  OH2         -11.6584380506        3.8656263251        2.7918058895  CLST         472          1.0000000000
      1415       472  TIP3  H1          -12.0814959238        3.0479099376        3.2109763858  CLST         472          1.0000000000
      1416       472  TIP3  H2          -11.5980125506        3.4242663370        1.8885485668  CLST         472          1.0000000000
      1417       473  TIP3  OH2           5.3278116423        0.9259898645       10.0564189745  CLST         473          1.0000000000
      1418       473  TIP3  H1            5.6224379267        1.8395573084       10.2023622030  CLST         473          1.0000000000
      1419       473  TIP3  H2            4.4104386547        1.0067081714        9.8146381495  CLST         473          1.0000000000
      1420       474  TIP3  OH2           1.2170564576        1.6454610626        1.6373652764  CLST         474          1.0000000000
      1421       474  TIP3  H1            0.2614891587        1.4101671213        1.7400672071  CLST         474          1.0000000000
      1422       474  TIP3  H2            1.2797540551        1.4456785590        0.6804783738  CLST         474          1.0000000000
      1423       475  TIP3  OH2           6.1414188695       -8.8056631885       12.0557236929  CLST         475          1.0000000000
      1424       475  TIP3  H1            6.9698717685       -8.9320383862       12.5270837178  CLST         475          1.0000000000
      1425       475  TIP3  H2            6.3247276494       -9.2961205773       11.2111818901  CLST         475          1.0000000000
      1426       476  TIP3  OH2         -11.9658212492       -8.4210564285       -0.4560258712  CLST         476          1.0000000000
      1427       476  TIP3  H1          -12.4767471220       -7.6910633704       -0.8236018071  CLST         476          1.0000000000
      1428       476  TIP3  H2          -11.1971074737       -8.3222670403       -0.9968832456  CLST         476          1.0000000000
      1429       477  TIP3  OH2         -12.5040041007        3.6471374643      -13.4766163525  CLST         477          1.0000000000
      1430       477  TIP3  H1          -12.9842918673        2.9795052760      -13.0403299579  CLST         477          1.0000000000
      1431       477  TIP3  H2          -11.9162775952        3.0417861876      -13.9111660104  CLST         477          1.0000000000
      1432       478  TIP3  OH2          -3.9735099798        6.6266156939      -10.6314097230  CLST         478          1.0000000000
      1433       478  TIP3  H1           -4.6775360302        6.4791136890      -11.2799991323  CLST         478          1.0000000000
      1434       478  TIP3  H2           -3.4111787583        7.3370800691      -11.0893106726  CLST         478          1.0000000000
      1435       479  TIP3  OH2           7.8692187058       -1.6144833308       -8.3335056164  CLST         479          1.0000000000
      1436       479  TIP3  H1            8.6897557153       -1.1798720063       -7.8514388223  CLST         479          1.0000000000
      1437       479  TIP3  H2            7.2011396297       -1.2440583832       -7.7338096649  CLST         479          1.0000000000
      1438       480  TIP3  OH2          -6.0594447669        7.6040089334        0.0713607809  CLST         480          1.0000000000
      1439       480  TIP3  H1           -5.1894402445        8.0020324976       -0.2475257764  CLST         480          1.0000000000
      1440       480  TIP3  H2           -5.7691318609        6.6711915728        0.1955840632  CLST         480          1.0000000000
      1441       481  TIP3  OH2          -2.9414544910        2.2016100547       12.0089931658  CLST         481          1.0000000000
      1442       481  TIP3  H1           -2.0784427469        2.2798004502       11.5057037496  CLST         481          1.0000000000
      1443       481  TIP3  H2           -2.5278287438        1.8848117736       12.8154907319  CLST         481          1.0000000000
      1444       482  TIP3  OH2          -7.9225177475       11.6426382673       -7.4692154111  CLST         482          1.0000000000
      1445       482  TIP3  H1           -8.6137655749       11.3867078176       -8.1197377709  CLST         482          1.0000000000
      1446       482  TIP3  H2           -7.2375917346       11.9590853267       -8.1602880218  CLST         482          1.0000000000
      1447       483  TIP3  OH2           6.1681376349       -5.9236830878       12.6803674589  CLST         483          1.0000000000
      1448       483  TIP3  H1            5.8900034077       -6.8673943090       12.5354484807  CLST         483          1.0000000000
      1449       483  TIP3  H2            6.1323993009       -5.7157695829       11.6593837313  CLST         483          1.0000000000
      1450       484  TIP3  OH2           6.8827874088       -3.1090634782        2.9235304316  CLST         484          1.0000000000
      1451       484  TIP3  H1            5.9450979757       -3.4205959545        2.8563259225  CLST         484          1.0000000000
      1452       484  TIP3  H2            6.7700041018       -2.2708981927        3.3581224265  CLST         484          1.0000000000
      1453       485  TIP3  OH2         -11.6963190212        4.5582834915       10.1318426697  CLST         485          1.0000000000
      1454       485  TIP3  H1          -11.3212423600        3.6477532983        9.9676559894  CLST         485          1.0000000000
      1455       485  TIP3  H2          -12.5040273356        4.3796953362        9.4709694965  CLST         485          1.0000000000
      1456       486  TIP3  OH2           8.4075199637       -7.2586877161       13.3444717448  CLST         486          1.0000000000
      1457       486  TIP3  H1            8.6194390908       -7.0263777964       14.2408218028  CLST         486          1.0000000000
      1458       486  TIP3  H2            7.6373876431       -6.6286407601       13.1744313859  CLST         486          1.0000000000
      1459       487  TIP3  OH2          12.1722624912       -8.4134322297        6.1356039675  CLST         487          1.0000000000
      1460       487  TIP3  H1           11.2441341692       -8.4055509676        5.8660444665  CLST         487          1.0000000000
      1461       487  TIP3  H2           12.1114081523       -8.5866332094        7.1417543243  CLST         487          1.0000000000
      1462       488  TIP3  OH2          15.0244102479        8.8025452465        7.6703078900  CLST         488          1.0000000000
      1463       488  TIP3  H1           15.4854346811        7.6090658151        7.5056132819  CLST         488          1.0000000000
      1464       488  TIP3  H2           14.3772362479        7.6122498687        7.9299541111  CLST         488          1.0000000000
      1465       489  TIP3  OH2          -6.0133462953      -10.8283318445       11.7543571960  CLST         489          1.0000000000
      1466       489  TIP3  H1           -6.5788432447      -10.0762052151       11.6185479396  CLST         489          1.0000000000
      1467       489  TIP3  H2           -7.7835847921      -11.1265784501       10.9441132623  CLST         489          1.0000000000
      1468       490  TIP3  OH2           6.8114187309      -12.9392623384        2.2844354311  CLST         490          1.0000000000
      1469       490  TIP3  H1            6.8235552421      -12.1677301947        2.9264262816  CLST         490          1.0000000000
      1470       490  TIP3  H2            6.5154749595      -13.5779733584        2.9213878646  CLST         490          1.0000000000
      1471       491  TIP3  OH2           3.0434692912       -9.1990848483        5.0899316122  CLST         491          1.0000000000
      1472       491  TIP3  H1            2.2827557428       -8.9925160566        5.6681550013  CLST         491          1.0000000000
      1473       491  TIP3  H2            2.6080807738       -9.6825121646        4.3705504861  CLST         491          1.0000000000
      1474       492  TIP3  OH2          -0.6993953650       -6.5605295232       12.2944134656  CLST         492          1.0000000000
      1475       492  TIP3  H1           -0.5760342536       -7.5506720904       12.1723025417  CLST         492          1.0000000000
      1476       492  TIP3  H2           -1.6771267299       -6.5234019223       12.3182407884  CLST         492          1.0000000000
      1477       493  TIP3  OH2           3.4162095253       10.7938887766        7.0874919527  CLST         493          1.0000000000
      1478       493  TIP3  H1            4.1229564182       10.6681131233        7.8168962104  CLST         493          1.0000000000
      1479       493  TIP3  H2            2.6502612344       10.4609177599        7.6315694115  CLST         493          1.0000000000
      1480       494  TIP3  OH2          -9.2054467684        5.4414784970       -0.5532618291  CLST         494          1.0000000000
      1481       494  TIP3  H1           -9.6389970086        6.1961262677       -0.9813508333  CLST         494          1.0000000000
      1482       494  TIP3  H2           -9.5351321804        5.6710136732        0.3609019794  CLST         494          1.0000000000
      1483       495  TIP3  OH2           5.1230812297       -6.9579497272       -2.0438423918  CLST         495          1.0000000000
      1484       495  TIP3  H1            5.7449055117       -6.4231924439       -2.5971012265  CLST         495          1.0000000000
      1485       495  TIP3  H2            5.8491476261       -7.4566068394       -1.5632222683  CLST         495          1.0000000000
      1486       496  TIP3  OH2         -12.9598962386      -10.9177117296        7.4991479416  CLST         496          1.0000000000
      1487       496  TIP3  H1          -13.4454933865      -11.4482363538        7.9651891183  CLST         496          1.0000000000
      1488       496  TIP3  H2          -12.6652857447      -11.6559327300        6.8235022202  CLST         496          1.0000000000
      1489       497  TIP3  OH2          -9.6698922001      -13.5605743401       -7.3262738452  CLST         497          1.0000000000
      1490       497  TIP3  H1          -10.3630360189      -14.0926920820       -7.1228045246  CLST         497          1.0000000000
      1491       497  TIP3  H2          -10.0116228534      -12.9522908690       -7.9625503520  CLST         497          1.0000000000
      1492       498  TIP3  OH2          -5.3344266736        0.3122047413      -11.0538841615  CLST         498          1.0000000000
      1493       498  TIP3  H1           -5.7487047825        0.3296116357      -11.9232299782  CLST         498          1.0000000000
      1494       498  TIP3  H2           -5.3340587360        1.2928048523      -10.8449912824  CLST         498          1.0000000000
      1495       499  TIP3  OH2          11.5442323234        6.4887532233        3.5555257729  CLST         499          1.0000000000
      1496       499  TIP3  H1           12.0108504280        7.0018428298        2.8625920219  CLST         499          1.0000000000
      1497       499  TIP3  H2           11.2703235735        7.1577594326        4.1834439440  CLST         499          1.0000000000
      1498       500  TIP3  OH2           2.4901088505       -8.6364588767      -13.4597405312  CLST         500          1.0000000000
      1499       500  TIP3  H1            1.8452266763       -9.1334072715      -13.9683132693  CLST         500          1.0000000000
      1500       500  TIP3  H2            2.7198813535       -9.3772258074      -12.8122213112  CLST         500          1.0000000000
      1501       501  TIP3  OH2           1.3243813007      -10.9420641952       13.9186772134  CLST         501          1.0000000000
      1502       501  TIP3  H1            1.2845974253      -11.7830651445       14.3540230751  CLST         501          1.0000000000
      1503       501  TIP3  H2            2.2752412618      -10.8993216734       13.7483567637  CLST         501          1.0000000000
      1504       502  TIP3  OH2           6.0894323408        3.7364866828        9.6112677180  CLST         502          1.0000000000
      1505       502  TIP3  H1            6.4954333253        4.0140307331       10.4552319238  CLST         502          1.0000000000
      1506       502  TIP3  H2            6.8105431084        3.2181600978        9.1822550606  CLST         502          1.0000000000
      1507       503  TIP3  OH2          10.4733363482       -0.8845130679        0.3261386223  CLST         503          1.0000000000
      1508       503  TIP3  H1           11.2493236789       -0.5363442061        0.8288267712  CLST         503          1.0000000000
      1509       503  TIP3  H2           10.3264460628       -0.0731227377       -0.2065875035  CLST         503          1.0000000000
      1510       504  TIP3  OH2           8.2782143426      -13.9628171312       10.7421112786  CLST         504          1.0000000000
      1511       504  TIP3  H1            8.4475372248      -13.6858070028        9.8622303580  CLST         504          1.0000000000
      1512       504  TIP3  H2            8.1629431278      -14.8925006038       10.6700189229  CLST         504          1.0000000000
      1513       505  TIP3  OH2           3.3623465392      -10.8675433047       -5.7088836970  CLST         505          1.0000000000
      1514       505  TIP3  H1            3.4267435571      -10.2956420884       -6.5017247257  CLST         505          1.0000000000
      1515       505  TIP3  H2            2.8440849552      -10.3032244835       -5.0900046759  CLST         505          1.0000000000
      1516       506  TIP3  OH2          -9.1612018149       -3.3867247410       -8.0957488852  CLST         506          1.0000000000
      1517       506  TIP3  H1           -8.7793161691       -2.4564754568       -7.9832558069  CLST         506          1.0000000000
      1518       506  TIP3  H2          -10.0596549367       -3.1548476227       -8.3984818110  CLST         506          1.0000000000
      1519       507  TIP3  OH2          11.3379054448       10.0138790084      -12.7653567107  CLST         507          1.0000000000
      1520       507  TIP3  H1           11.2796865253        9.1893589072      -13.2919456405  CLST         507          1.0000000000
      1521       507  TIP3  H2           10.9583304439        7.8133062233      -12.4415719728  CLST         507          1.0000000000
      1522       508  TIP3  OH2           9.3400690429       12.2789501018        9.0068284457  CLST         508          1.0000000000
      1523       508  TIP3  H1            8.8648614371       12.2653312237        8.0968577150  CLST         508          1.0000000000
      1524       508  TIP3  H2           10.2397451329       12.3528122817        8.6496433898  CLST         508          1.0000000000
      1525       509  TIP3  OH2          -0.7286256377       -1.6032655908      -11.2201851045  CLST         509          1.0000000000
      1526       509  TIP3  H1           -1.7060933741       -1.7319603863      -11.3223333951  CLST         509          1.0000000000
      1527       509  TIP3  H2           -0.8221998498       -0.6663864459      -10.8119606187  CLST         509          1.0000000000
      1528       510  TIP3  OH2           8.1119322179        2.3781391325       11.7054460479  CLST         510          1.0000000000
      1529       510  TIP3  H1            7.9691736805        1.3946937310       11.6708578996  CLST         510          1.0000000000
      1530       510  TIP3  H2            8.9916726335        2.3775444175       11.2937274190  CLST         510          1.0000000000
      1531       511  TIP3  OH2          -8.8389536374       -6.0616582780       -0.7920326658  CLST         511          1.0000000000
      1532       511  TIP3  H1           -9.7168369620       -6.5383058536       -1.0550707951  CLST         511          1.0000000000
      1533       511  TIP3  H2           -8.9727472769       -5.2197973858       -1.2154654592  CLST         511          1.0000000000
      1534       512  TIP3  OH2          10.1112529481        7.1721091166        6.8987744055  CLST         512          1.0000000000
      1535       512  TIP3  H1           10.4499810176        7.5283792418        7.7366109748  CLST         512          1.0000000000
      1536       512  TIP3  H2           10.6374587911        7.7165012371        6.2806936856  CLST         512          1.0000000000
      1537       513  TIP3  OH2         -11.6110244992       10.5362553010        9.2159965175  CLST         513          1.0000000000
      1538       513  TIP3  H1          -10.3581203072       11.4759147503       10.0441178073  CLST         513          1.0000000000
      1539       513  TIP3  H2          -11.3444074185        9.6803561102       10.3535712307  CLST         513          1.0000000000
      1540       514  TIP3  OH2          -4.6380991143        5.0870929159        0.1399410984  CLST         514          1.0000000000
      1541       514  TIP3  H1           -3.8518374245        5.5698361998        0.4752309676  CLST         514          1.0000000000
      1542       514  TIP3  H2           -4.3512395868        5.1104365850       -0.8364359488  CLST         514          1.0000000000
      1543       515  TIP3  OH2          -0.8898139815        0.8714678551       -4.2841006046  CLST         515          1.0000000000
      1544       515  TIP3  H1           -1.6605077715        1.5327018668       -4.3136532132  CLST         515          1.0000000000
      1545       515  TIP3  H2           -0.1449934930        1.3219208785       -4.7019208163  CLST         515          1.0000000000
      1546       516  TIP3  OH2          -7.4004807412       -8.5260381636        6.4165241336  CLST         516          1.0000000000
      1547       516  TIP3  H1           -7.6179880471       -8.6139144170        5.4920938115  CLST         516          1.0000000000
      1548       516  TIP3  H2           -7.9680056653       -7.7070242227        6.5752126122  CLST         516          1.0000000000
      1549       517  TIP3  OH2           0.6124167325       10.8575693978       11.3876350845  CLST         517          1.0000000000
      1550       517  TIP3  H1            0.6238376133       10.9910388852       10.4585077292  CLST         517          1.0000000000
      1551       517  TIP3  H2           -0.2952483748       11.2075732291       11.4956364708  CLST         517          1.0000000000
      1552       518  TIP3  OH2         -11.8354612596       -3.4570698059      -11.2877439598  CLST         518          1.0000000000
      1553       518  TIP3  H1          -11.8807610472       -2.6889810747      -11.8961804967  CLST         518          1.0000000000
      1554       518  TIP3  H2          -11.0615857087       -3.8745013999      -11.5752705398  CLST         518          1.0000000000
      1555       519  TIP3  OH2           2.1343489008        3.3479698162        3.4098695363  CLST         519          1.0000000000
      1556       519  TIP3  H1            1.8433637170        4.1480128091        2.7986703019  CLST         519          1.0000000000
      1557       519  TIP3  H2            1.7732504271        2.6105988170        2.8349657901  CLST         519          1.0000000000
      1558       520  TIP3  OH2         -10.1713635839        6.2791954803        8.1504599409  CLST         520          1.0000000000
      1559       520  TIP3  H1          -10.3845485713        5.7955120566        7.3203512606  CLST         520          1.0000000000
      1560       520  TIP3  H2          -10.7642291432        5.8365794534        8.7905128465  CLST         520          1.0000000000
      1561       521  TIP3  OH2           8.3450578723       -8.7675622962       -9.5176284262  CLST         521          1.0000000000
      1562       521  TIP3  H1            8.4573519786       -9.4257686522      -10.2248711643  CLST         521          1.0000000000
      1563       521  TIP3  H2            8.1788265990       -7.9394365723      -10.0519903856  CLST         521          1.0000000000
      1564       522  TIP3  OH2          -5.5503574547       -7.0020894344        8.2020755888  CLST         522          1.0000000000
      1565       522  TIP3  H1           -6.0908427445       -7.6581040007        7.7673459179  CLST         522          1.0000000000
      1566       522  TIP3  H2           -4.6685904217       -7.3848339303        8.2569075329  CLST         522          1.0000000000
      1567       523  TIP3  OH2          -4.1778006027       12.0887013553      -13.6100092236  CLST         523          1.0000000000
      1568       523  TIP3  H1           -2.2000261157       11.8818446333      -13.5851860334  CLST         523          1.0000000000
      1569       523  TIP3  H2           -3.9303988135       12.8092145322      -14.1076636244  CLST         523          1.0000000000
      1570       524  TIP3  OH2           6.9834488516        4.0520937657       -1.8795195454  CLST         524          1.0000000000
      1571       524  TIP3  H1            7.3339550594        3.6208758561       -2.6526103689  CLST         524          1.0000000000
      1572       524  TIP3  H2            5.9967995942        3.8923543297       -1.9501786694  CLST         524          1.0000000000
      1573       525  TIP3  OH2           0.2921563777        6.7331854878       -2.5075989537  CLST         525          1.0000000000
      1574       525  TIP3  H1            0.7374218835        6.3029796355       -3.2822130493  CLST         525          1.0000000000
      1575       525  TIP3  H2            0.1792246176        5.8986877289       -1.9632936560  CLST         525          1.0000000000
      1576       526  TIP3  OH2           6.9174184874       -5.5899496354       -3.6600605970  CLST         526          1.0000000000
      1577       526  TIP3  H1            7.0765721158       -5.9331221198       -4.5710032027  CLST         526          1.0000000000
      1578       526  TIP3  H2            7.8649006002       -5.7059251946       -3.3299187842  CLST         526          1.0000000000
      1579       527  TIP3  OH2           0.5471780250        7.1510691663        4.0046827727  CLST         527          1.0000000000
      1580       527  TIP3  H1            1.2748906598        7.4460010190        4.6367470309  CLST         527          1.0000000000
      1581       527  TIP3  H2            0.3078340430        8.0667251711        3.8024262679  CLST         527          1.0000000000
      1582       528  TIP3  OH2          -2.8052307663       10.0951656792        8.7405612839  CLST         528          1.0000000000
      1583       528  TIP3  H1           -3.2406586327        9.7765334896        9.5717871112  CLST         528          1.0000000000
      1584       528  TIP3  H2           -3.5407614661       10.5175575250        8.2792223801  CLST         528          1.0000000000
      1585       529  TIP3  OH2          -6.0607748082       12.1555860140       -9.3782533090  CLST         529          1.0000000000
      1586       529  TIP3  H1           -5.2809651570       12.5229006617       -9.0358747542  CLST         529          1.0000000000
      1587       529  TIP3  H2           -5.8227076758       11.8041437990      -10.2515378378  CLST         529          1.0000000000
      1588       530  TIP3  OH2          -4.5390677171       -5.5597762419      -13.0680792119  CLST         530          1.0000000000
      1589       530  TIP3  H1           -4.4448070427       -6.5815275450      -12.9585072746  CLST         530          1.0000000000
      1590       530  TIP3  H2           -3.5635446396       -5.3428622836      -13.1371841291  CLST         530          1.0000000000
      1591       531  TIP3  OH2         -11.6226140801       -0.0639760024       10.3989930295  CLST         531          1.0000000000
      1592       531  TIP3  H1          -12.1034826710       -0.1050136576       11.1749059501  CLST         531          1.0000000000
      1593       531  TIP3  H2          -12.1427771201       -0.4304887179        9.6820432756  CLST         531          1.0000000000
      1594       532  TIP3  OH2         -12.0176897958       -2.7707798675       -8.7485089390  CLST         532          1.0000000000
      1595       532  TIP3  H1          -12.3543216151       -3.5614435687       -8.3509456398  CLST         532          1.0000000000
      1596       532  TIP3  H2          -12.0901533714       -3.0000230881       -9.7303911568  CLST         532          1.0000000000
      1597       533  TIP3  OH2          -2.8654089196       -7.2926934596        8.7356752088  CLST         533          1.0000000000
      1598       533  TIP3  H1           -2.3611130017       -8.0955746811        8.8899377520  CLST         533          1.0000000000
      1599       533  TIP3  H2           -2.3179277269       -6.6266729054        8.2871321840  CLST         533          1.0000000000
      1600       534  TIP3  OH2           0.4540077808      -13.3168674435       -7.5435106762  CLST         534          1.0000000000
      1601       534  TIP3  H1            0.9613463513      -13.0083413905       -8.3780218646  CLST         534          1.0000000000
      1602       534  TIP3  H2            1.3386920495      -13.3554838002       -7.0333484364  CLST         534          1.0000000000
      1603       535  TIP3  OH2           2.7165406064        3.2868491954       -7.7561836454  CLST         535          1.0000000000
      1604       535  TIP3  H1            2.8321871747        2.3923979898       -7.3832935383  CLST         535          1.0000000000
      1605       535  TIP3  H2            1.7865435019        3.3118842008       -8.0465407901  CLST         535          1.0000000000
      1606       536  TIP3  OH2           7.8902840458      -12.6698634069       -3.5483512070  CLST         536          1.0000000000
      1607       536  TIP3  H1            7.2871224898      -12.6066369733       -4.3684975806  CLST         536          1.0000000000
      1608       536  TIP3  H2            8.5729427745      -13.2296855295       -3.7896579998  CLST         536          1.0000000000
      1609       537  TIP3  OH2          11.7334041707       -2.6368429754       -7.4913606484  CLST         537          1.0000000000
      1610       537  TIP3  H1           11.8380897069       -1.6865471506       -7.4163453498  CLST         537          1.0000000000
      1611       537  TIP3  H2           13.4407255129       -3.5420555933       -8.4580661501  CLST         537          1.0000000000
      1612       538  TIP3  OH2          -5.2528280262      -10.7609161067        0.7496031283  CLST         538          1.0000000000
      1613       538  TIP3  H1           -4.5026338393      -11.0136426081        1.3387883546  CLST         538          1.0000000000
      1614       538  TIP3  H2           -5.0712302129       -9.7762190320        0.6893136054  CLST         538          1.0000000000
      1615       539  TIP3  OH2           2.4952436609       -5.1345113318        0.6669313949  CLST         539          1.0000000000
      1616       539  TIP3  H1            1.5567608854       -5.2699007118        1.0568134942  CLST         539          1.0000000000
      1617       539  TIP3  H2            2.1818445405       -5.6083218671       -0.1990486760  CLST         539          1.0000000000
      1618       540  TIP3  OH2           3.9073153742       -6.8261595044        4.6919440209  CLST         540          1.0000000000
      1619       540  TIP3  H1            3.5751364942       -7.6828043246        5.0028113010  CLST         540          1.0000000000
      1620       540  TIP3  H2            4.0119895049       -7.0822463479        3.7476451956  CLST         540          1.0000000000
      1621       541  TIP3  OH2          -5.5247880356       10.4589013320        2.2385305285  CLST         541          1.0000000000
      1622       541  TIP3  H1           -6.0623052265       10.5313575302        3.0710323382  CLST         541          1.0000000000
      1623       541  TIP3  H2           -4.7520284875       11.0487672644        2.5036605419  CLST         541          1.0000000000
      1624       542  TIP3  OH2         -10.7817727952       14.1178451878        6.1593913604  CLST         542          1.0000000000
      1625       542  TIP3  H1          -10.9985303094       14.3795219691        5.0151742717  CLST         542          1.0000000000
      1626       542  TIP3  H2          -10.0593708284       13.4195883352        3.9717591071  CLST         542          1.0000000000
      1627       543  TIP3  OH2         -10.6309329661       11.4007316101       -2.5586947746  CLST         543          1.0000000000
      1628       543  TIP3  H1          -11.5372718252       11.0295329979       -2.5957070829  CLST         543          1.0000000000
      1629       543  TIP3  H2          -10.4029950978       11.5576254770       -3.4766643954  CLST         543          1.0000000000
      1630       544  TIP3  OH2          -0.5117944446        5.7113149114       -5.5894663754  CLST         544          1.0000000000
      1631       544  TIP3  H1           -0.5395715416        5.4115408191       -6.5837805563  CLST         544          1.0000000000
      1632       544  TIP3  H2            0.3166059004        5.2908808850       -5.2742087712  CLST         544          1.0000000000
      1633       545  TIP3  OH2          -7.9587051379        2.5399406912      -12.6476324402  CLST         545          1.0000000000
      1634       545  TIP3  H1           -8.0912475280        2.1790339214      -13.5695551460  CLST         545          1.0000000000
      1635       545  TIP3  H2           -8.6215916088        3.3066623108      -12.6904721466  CLST         545          1.0000000000
      1636       546  TIP3  OH2           3.8158374428       10.9062928662       -2.2037743218  CLST         546          1.0000000000
      1637       546  TIP3  H1            3.3266561421        9.9478527616       -2.1820686799  CLST         546          1.0000000000
      1638       546  TIP3  H2            4.5319498199       10.7815781791       -1.4199440604  CLST         546          1.0000000000
      1639       547  TIP3  OH2          -3.5834272927       -2.1461328154      -11.1338611519  CLST         547          1.0000000000
      1640       547  TIP3  H1           -3.5254978273       -2.2410277595      -10.1303473465  CLST         547          1.0000000000
      1641       547  TIP3  H2           -3.9850826116       -1.2713230672      -11.1239787760  CLST         547          1.0000000000
      1642       548  TIP3  OH2          10.5502908363        2.3212508000        1.4618402196  CLST         548          1.0000000000
      1643       548  TIP3  H1            9.5436204186        2.2483249019        1.4806163489  CLST         548          1.0000000000
      1644       548  TIP3  H2           10.6019439195        2.9710060063        2.1863381802  CLST         548          1.0000000000
