* Geometry rescue: EQUI at step 14500
*
        1644  EXT
         1         1  TIP3  OH2           4.5571935024       -1.5576621360       -2.2531735314  CLST           1          1.0000000000
         2         1  TIP3  H1            4.6629727218       -1.7233113667       -1.2908183698  CLST           1          1.0000000000
         3         1  TIP3  H2            5.3597310009       -1.9667364215       -2.6858926627  CLST           1          1.0000000000
         4         2  TIP3  OH2          10.7476957525        7.4301515979      -11.8293858314  CLST           2          1.0000000000
         5         2  TIP3  H1           11.1102930627        7.1852731821      -10.9608718372  CLST           2          1.0000000000
         6         2  TIP3  H2            9.7833781287        7.3843439864      -11.6299642851  CLST           2          1.0000000000
         7         3  TIP3  OH2           8.6868238768        5.3604525312       -4.1872442647  CLST           3          1.0000000000
         8         3  TIP3  H1            8.8781158399        5.6058367280       -3.2269634842  CLST           3          1.0000000000
         9         3  TIP3  H2            9.0741900604        6.1751126558       -4.6182787140  CLST           3          1.0000000000
        10         4  TIP3  OH2          -2.8474890297        6.7802778139       10.1627026399  CLST           4          1.0000000000
        11         4  TIP3  H1           -3.5871554411        7.1431151312        9.5545023482  CLST           4          1.0000000000
        12         4  TIP3  H2           -2.9850130153        7.4205512209       10.8806789192  CLST           4          1.0000000000
        13         5  TIP3  OH2           9.1404205130        6.1989173765       10.6535939320  CLST           5          1.0000000000
        14         5  TIP3  H1            8.5871040616        5.4986160918       11.1580245147  CLST           5          1.0000000000
        15         5  TIP3  H2            8.8486646556        5.8844432838        9.7773416431  CLST           5          1.0000000000
        16         6  TIP3  OH2          10.6000527896       -5.9288825369      -11.7515628068  CLST           6          1.0000000000
        17         6  TIP3  H1           11.0508055789       -5.4024929318      -11.0349877430  CLST           6          1.0000000000
        18         6  TIP3  H2           10.5344444431       -5.1689618028      -12.4016306272  CLST           6          1.0000000000
        19         7  TIP3  OH2         -12.5158822338        8.3405522412        5.9625515663  CLST           7          1.0000000000
        20         7  TIP3  H1          -12.9491028355        9.1852648568        6.2020502309  CLST           7          1.0000000000
        21         7  TIP3  H2          -11.7238376230        8.5208404411        6.5030173504  CLST           7          1.0000000000
        22         8  TIP3  OH2          -4.5668512799       -8.4341601490        0.6211309490  CLST           8          1.0000000000
        23         8  TIP3  H1           -5.0870554342       -7.6089235785        0.9026065933  CLST           8          1.0000000000
        24         8  TIP3  H2           -3.8038356669       -7.9594755588        0.2750376934  CLST           8          1.0000000000
        25         9  TIP3  OH2           2.8050969623      -14.1071214183       -4.0660359705  CLST           9          1.0000000000
        26         9  TIP3  H1            1.8487290804      -14.1380513817       -3.9499630036  CLST           9          1.0000000000
        27         9  TIP3  H2            3.0347493766      -14.1306503569       -3.1260878910  CLST           9          1.0000000000
        28        10  TIP3  OH2         -14.2588506587       -1.2254323106       -0.3636459465  CLST          10          1.0000000000
        29        10  TIP3  H1          -13.7612349482       -1.5013925917       -1.1920540240  CLST          10          1.0000000000
        30        10  TIP3  H2          -14.3347273311       -1.9891916720        0.1539713937  CLST          10          1.0000000000
        31        11  TIP3  OH2           7.1130400651        6.8063429353       -1.9901548421  CLST          11          1.0000000000
        32        11  TIP3  H1            7.2819581375        5.8668166033       -2.1386315880  CLST          11          1.0000000000
        33        11  TIP3  H2            6.9224666384        7.0543092612       -2.9393331579  CLST          11          1.0000000000
        34        12  TIP3  OH2          -8.1738782432        2.4650059819        1.8794543914  CLST          12          1.0000000000
        35        12  TIP3  H1           -7.6292048409        2.6455048616        1.0767638363  CLST          12          1.0000000000
        36        12  TIP3  H2           -9.0569201904        2.3872133003        1.4306124758  CLST          12          1.0000000000
        37        13  TIP3  OH2           7.7716850869        2.3695549692        2.1362039190  CLST          13          1.0000000000
        38        13  TIP3  H1            7.3617513962        3.1130348695        1.6344928205  CLST          13          1.0000000000
        39        13  TIP3  H2            7.7569666682        2.6150862653        3.0881804086  CLST          13          1.0000000000
        40        14  TIP3  OH2          -0.4178541781        2.2419726260        7.7772714306  CLST          14          1.0000000000
        41        14  TIP3  H1           -0.0663406306        3.1077380559        7.4196705038  CLST          14          1.0000000000
        42        14  TIP3  H2            0.2810078434        1.6192053488        7.4628975908  CLST          14          1.0000000000
        43        15  TIP3  OH2          -8.7955990517       -3.8001937578      -12.8362481360  CLST          15          1.0000000000
        44        15  TIP3  H1           -7.9519521253       -3.6453328799      -13.3357773283  CLST          15          1.0000000000
        45        15  TIP3  H2           -8.2931069970       -4.5299411101      -12.3178752359  CLST          15          1.0000000000
        46        16  TIP3  OH2          -3.8274404161      -12.8060435039       -6.2137315782  CLST          16          1.0000000000
        47        16  TIP3  H1           -4.4126858766      -12.7866777531       -5.3858145395  CLST          16          1.0000000000
        48        16  TIP3  H2           -2.9385468407      -12.7982539175       -5.7641333008  CLST          16          1.0000000000
        49        17  TIP3  OH2           4.9105092452      -13.4020957383       -8.5739552787  CLST          17          1.0000000000
        50        17  TIP3  H1            5.4401988817      -13.7149431732       -7.8411180666  CLST          17          1.0000000000
        51        17  TIP3  H2            4.0460220722      -13.3937051341       -8.0630257347  CLST          17          1.0000000000
        52        18  TIP3  OH2         -11.6710416612       -6.7979614546       -1.6006601783  CLST          18          1.0000000000
        53        18  TIP3  H1          -12.0066499224       -5.9193756372       -1.9565272788  CLST          18          1.0000000000
        54        18  TIP3  H2          -11.7894491878       -7.2338115728       -2.4825437789  CLST          18          1.0000000000
        55        19  TIP3  OH2          10.9316105517       -0.1627179994        9.6424875867  CLST          19          1.0000000000
        56        19  TIP3  H1           10.3486400988       -0.8918757691        9.7725817973  CLST          19          1.0000000000
        57        19  TIP3  H2           10.9777461626       -0.2864537606        8.6635202506  CLST          19          1.0000000000
        58        20  TIP3  OH2         -13.3844277959        1.3866871345        2.9026913042  CLST          20          1.0000000000
        59        20  TIP3  H1          -13.1879789855        1.2841012043        1.9827754030  CLST          20          1.0000000000
        60        20  TIP3  H2          -14.2783595559        1.7611492710        2.9574462989  CLST          20          1.0000000000
        61        21  TIP3  OH2         -10.2008804694       12.5126426510       -5.3289879417  CLST          21          1.0000000000
        62        21  TIP3  H1          -10.0969853201       13.3121768446       -5.7801316122  CLST          21          1.0000000000
        63        21  TIP3  H2           -9.4899913564       12.1116357857       -5.8890060447  CLST          21          1.0000000000
        64        22  TIP3  OH2           2.9182222438       12.1570720854       -6.6468095642  CLST          22          1.0000000000
        65        22  TIP3  H1            3.2753238677       11.4235162892       -6.0820760838  CLST          22          1.0000000000
        66        22  TIP3  H2            3.1796679223       12.9188172068       -6.1059666875  CLST          22          1.0000000000
        67        23  TIP3  OH2           5.5899000279       -1.7087400321       11.6374866976  CLST          23          1.0000000000
        68        23  TIP3  H1            4.9603036096       -2.0435365849       10.9496046362  CLST          23          1.0000000000
        69        23  TIP3  H2            5.1321604186       -0.8659563788       11.7574855723  CLST          23          1.0000000000
        70        24  TIP3  OH2          -0.1462276272        1.0540769651        4.5635358985  CLST          24          1.0000000000
        71        24  TIP3  H1            0.4813448076        0.8310825852        5.2503296732  CLST          24          1.0000000000
        72        24  TIP3  H2           -0.9086828939        0.4792613904        4.8653552749  CLST          24          1.0000000000
        73        25  TIP3  OH2           3.1378016222        2.0946831490       -2.7239227322  CLST          25          1.0000000000
        74        25  TIP3  H1            3.6356122402        1.6022694619       -2.0013667761  CLST          25          1.0000000000
        75        25  TIP3  H2            3.5381090469        2.9970100044       -2.6087434825  CLST          25          1.0000000000
        76        26  TIP3  OH2          11.3262915653        5.4851551478       -6.5788962669  CLST          26          1.0000000000
        77        26  TIP3  H1           10.4982479557        5.1799858689       -7.0199573060  CLST          26          1.0000000000
        78        26  TIP3  H2           11.0792353345        6.2629804216       -6.0908605985  CLST          26          1.0000000000
        79        27  TIP3  OH2         -10.2422321387        7.4129365672       -5.3750837888  CLST          27          1.0000000000
        80        27  TIP3  H1          -10.4494733278        7.7380118610       -4.4557714522  CLST          27          1.0000000000
        81        27  TIP3  H2          -10.9226718736        7.8201426162       -5.8836083893  CLST          27          1.0000000000
        82        28  TIP3  OH2          -4.1537138193      -10.2773729196       -6.8384612927  CLST          28          1.0000000000
        83        28  TIP3  H1           -4.1731222315      -11.2747124562       -6.6585057621  CLST          28          1.0000000000
        84        28  TIP3  H2           -5.0773537989       -9.9829705857       -6.6407808929  CLST          28          1.0000000000
        85        29  TIP3  OH2         -10.7444316331        7.5919057544       -2.5848118642  CLST          29          1.0000000000
        86        29  TIP3  H1          -10.0960806406        8.2217054876       -2.1417189982  CLST          29          1.0000000000
        87        29  TIP3  H2          -11.5512387219        8.1067262121       -2.2926016298  CLST          29          1.0000000000
        88        30  TIP3  OH2           8.7582696275      -10.4636031951       -2.0831380880  CLST          30          1.0000000000
        89        30  TIP3  H1            9.2676119790      -11.1751790790       -1.6061988006  CLST          30          1.0000000000
        90        30  TIP3  H2            8.3644592241      -11.1225874103       -2.7419187246  CLST          30          1.0000000000
        91        31  TIP3  OH2          -9.7561015405       -1.2456542537      -13.1659755159  CLST          31          1.0000000000
        92        31  TIP3  H1           -9.5643147484       -2.2146411417      -12.9733747666  CLST          31          1.0000000000
        93        31  TIP3  H2           -9.6587993371       -0.9160601403      -12.2287748264  CLST          31          1.0000000000
        94        32  TIP3  OH2          -8.6257130227       -6.4203975500        7.0917401363  CLST          32          1.0000000000
        95        32  TIP3  H1           -9.5478151569       -6.6045161726        7.1425321064  CLST          32          1.0000000000
        96        32  TIP3  H2           -8.4863669209       -5.8581298760        6.2576125538  CLST          32          1.0000000000
        97        33  TIP3  OH2          11.6915472688       -8.9299126418        8.8255901446  CLST          33          1.0000000000
        98        33  TIP3  H1           11.8044253761       -9.8658449832        9.0735522358  CLST          33          1.0000000000
        99        33  TIP3  H2           11.1805220518       -8.5962733730        9.5812845705  CLST          33          1.0000000000
       100        34  TIP3  OH2           4.0751909862       -3.9640655170        2.9065816784  CLST          34          1.0000000000
       101        34  TIP3  H1            3.5177924842       -4.1098750665        2.0903207776  CLST          34          1.0000000000
       102        34  TIP3  H2            4.0730077408       -4.8624206160        3.2758528849  CLST          34          1.0000000000
       103        35  TIP3  OH2           6.2256222606       -0.8700997143        4.4246810674  CLST          35          1.0000000000
       104        35  TIP3  H1            5.3404779286       -0.9282180693        4.8925688088  CLST          35          1.0000000000
       105        35  TIP3  H2            6.7758237676       -0.3236276954        5.0338373641  CLST          35          1.0000000000
       106        36  TIP3  OH2          -1.5984552256        1.3830025877        2.2557237889  CLST          36          1.0000000000
       107        36  TIP3  H1           -2.1455378118        0.6643131592        2.6885370150  CLST          36          1.0000000000
       108        36  TIP3  H2           -0.9000147745        1.4028741889        2.9633219080  CLST          36          1.0000000000
       109        37  TIP3  OH2          -4.3388408880       -8.2868621685      -13.0308755566  CLST          37          1.0000000000
       110        37  TIP3  H1           -5.0033276730       -8.4808650829      -12.3644727405  CLST          37          1.0000000000
       111        37  TIP3  H2           -3.9455585286       -9.1205830266      -13.3663052344  CLST          37          1.0000000000
       112        38  TIP3  OH2          -3.0542601866        2.0207448959       -4.4947410747  CLST          38          1.0000000000
       113        38  TIP3  H1           -3.0342533461        2.9125143066       -4.9733589844  CLST          38          1.0000000000
       114        38  TIP3  H2           -3.3442339507        1.5124327334       -5.2875189656  CLST          38          1.0000000000
       115        39  TIP3  OH2           1.7019112541      -10.8495022782        2.0495366566  CLST          39          1.0000000000
       116        39  TIP3  H1            1.5423973053      -11.3766191781        2.8786298926  CLST          39          1.0000000000
       117        39  TIP3  H2            0.7402154054      -10.5587582502        1.9279647913  CLST          39          1.0000000000
       118        40  TIP3  OH2          -7.0723073851       12.5328910635        8.2410539939  CLST          40          1.0000000000
       119        40  TIP3  H1           -7.9804721975       12.7915657142        7.9384079970  CLST          40          1.0000000000
       120        40  TIP3  H2           -6.5509131695       12.7979081737        7.4582952382  CLST          40          1.0000000000
       121        41  TIP3  OH2           9.6853117872       -2.3374276915      -11.1506152176  CLST          41          1.0000000000
       122        41  TIP3  H1            8.9834669335       -3.0211271811      -10.8277276733  CLST          41          1.0000000000
       123        41  TIP3  H2            9.1540454268       -1.6369797434      -10.7453870637  CLST          41          1.0000000000
       124        42  TIP3  OH2           9.6723058829       10.3033717472      -10.6543159269  CLST          42          1.0000000000
       125        42  TIP3  H1           10.5227299245        9.9168959213      -10.3349692045  CLST          42          1.0000000000
       126        42  TIP3  H2           10.0296888696       10.4611820111      -11.5172499832  CLST          42          1.0000000000
       127        43  TIP3  OH2          11.9296755756       12.7690943201        7.7037133529  CLST          43          1.0000000000
       128        43  TIP3  H1           12.4200078065       13.5764882337        7.7401988993  CLST          43          1.0000000000
       129        43  TIP3  H2           12.5715556591       12.0644007090        8.0273930156  CLST          43          1.0000000000
       130        44  TIP3  OH2           7.7397968570        1.1131737127        5.9715444170  CLST          44          1.0000000000
       131        44  TIP3  H1            8.0381695603        1.4185052218        6.8663754657  CLST          44          1.0000000000
       132        44  TIP3  H2            7.5559052887        1.9916510600        5.5492067087  CLST          44          1.0000000000
       133        45  TIP3  OH2           7.8344840025        9.5250780694        7.4346576023  CLST          45          1.0000000000
       134        45  TIP3  H1            7.4245706299        8.6795309834        7.6486091122  CLST          45          1.0000000000
       135        45  TIP3  H2            8.6297664343        9.4661592046        8.0063381942  CLST          45          1.0000000000
       136        46  TIP3  OH2          -5.6585405300       -3.1855028481      -12.9023274157  CLST          46          1.0000000000
       137        46  TIP3  H1           -5.3786622619       -4.1270767113      -13.1251590755  CLST          46          1.0000000000
       138        46  TIP3  H2           -4.9021692981       -2.9542478569      -12.3257011915  CLST          46          1.0000000000
       139        47  TIP3  OH2           1.3481158659       -6.6201047496      -10.8988048517  CLST          47          1.0000000000
       140        47  TIP3  H1            1.6205516726       -5.6896808990      -10.6406096911  CLST          47          1.0000000000
       141        47  TIP3  H2            1.3364883345       -6.5269444833      -11.8718155563  CLST          47          1.0000000000
       142        48  TIP3  OH2           5.1079763568        5.5653849355        1.2043156548  CLST          48          1.0000000000
       143        48  TIP3  H1            6.0059991515        5.2378932911        0.8584327748  CLST          48          1.0000000000
       144        48  TIP3  H2            5.3785868892        6.5295804772        1.2063446697  CLST          48          1.0000000000
       145        49  TIP3  OH2          -3.2492692192      -10.5414122075      -13.6810370670  CLST          49          1.0000000000
       146        49  TIP3  H1           -2.3610713132      -10.7964816976      -13.7770554641  CLST          49          1.0000000000
       147        49  TIP3  H2           -3.7553951358      -11.1035499171      -13.0914342147  CLST          49          1.0000000000
       148        50  TIP3  OH2           2.7926218421        3.8767359020        6.0014926907  CLST          50          1.0000000000
       149        50  TIP3  H1            1.9987665589        4.2913845641        6.4760975253  CLST          50          1.0000000000
       150        50  TIP3  H2            2.4144642256        3.7496033635        5.1196486455  CLST          50          1.0000000000
       151        51  TIP3  OH2          -6.4725360210      -10.0305090556       -4.6657156102  CLST          51          1.0000000000
       152        51  TIP3  H1           -6.4043654812       -9.8246554777       -3.7064133309  CLST          51          1.0000000000
       153        51  TIP3  H2           -6.3236905215      -10.9971648380       -4.6863700033  CLST          51          1.0000000000
       154        52  TIP3  OH2           9.1950242343       -5.7276135109       -0.2051020605  CLST          52          1.0000000000
       155        52  TIP3  H1            9.3582573649       -5.4129032070       -1.1583957602  CLST          52          1.0000000000
       156        52  TIP3  H2            8.8761973868       -4.8006632657        0.0921532112  CLST          52          1.0000000000
       157        53  TIP3  OH2          -9.7292096519        9.9593427602      -12.4141915660  CLST          53          1.0000000000
       158        53  TIP3  H1           -9.8240240109       10.0836090868      -13.2411017406  CLST          53          1.0000000000
       159        53  TIP3  H2           -8.8671476736        9.3537639434      -12.3760894269  CLST          53          1.0000000000
       160        54  TIP3  OH2           0.5002669875       -3.0246469877       -9.6860756466  CLST          54          1.0000000000
       161        54  TIP3  H1            1.4281202340       -3.1505790728       -9.9651135948  CLST          54          1.0000000000
       162        54  TIP3  H2            0.1715583987       -2.3995268342      -10.4009694135  CLST          54          1.0000000000
       163        55  TIP3  OH2           3.0166316920       -3.9752283217      -14.6128087134  CLST          55          1.0000000000
       164        55  TIP3  H1            3.3906302394       -4.8882641854      -14.5383406348  CLST          55          1.0000000000
       165        55  TIP3  H2            3.0397004848       -3.7474682518      -15.5166916540  CLST          55          1.0000000000
       166        56  TIP3  OH2          -9.9037376791       11.1894910465        5.6125646131  CLST          56          1.0000000000
       167        56  TIP3  H1          -10.0428255760       10.3314480472        6.1099469370  CLST          56          1.0000000000
       168        56  TIP3  H2          -10.3661515521       10.9602488888        4.7607480268  CLST          56          1.0000000000
       169        57  TIP3  OH2           1.6425427525      -13.3250914004        0.4191806279  CLST          57          1.0000000000
       170        57  TIP3  H1            1.6209633813      -12.4332351769        0.8334574239  CLST          57          1.0000000000
       171        57  TIP3  H2            2.5149970078      -13.1148720555        0.0190624202  CLST          57          1.0000000000
       172        58  TIP3  OH2         -13.0957631582       10.6921403165        7.0311654626  CLST          58          1.0000000000
       173        58  TIP3  H1          -12.5392274632       11.3935974977        6.7354668283  CLST          58          1.0000000000
       174        58  TIP3  H2          -12.8241655199       10.6274688210        8.0003234906  CLST          58          1.0000000000
       175        59  TIP3  OH2         -11.5257443869       -2.6225880355        5.4331396658  CLST          59          1.0000000000
       176        59  TIP3  H1          -11.9694494719       -2.4183616617        6.3103657256  CLST          59          1.0000000000
       177        59  TIP3  H2          -11.4133632359       -1.6460117551        5.2092339689  CLST          59          1.0000000000
       178        60  TIP3  OH2           1.4912335619        9.6176017981        8.5581579460  CLST          60          1.0000000000
       179        60  TIP3  H1            0.6340928054        9.1592598364        8.3462630824  CLST          60          1.0000000000
       180        60  TIP3  H2            1.9022907929        8.7709249467        8.8810259708  CLST          60          1.0000000000
       181        61  TIP3  OH2           2.8554297623       -0.7567490814       -5.4997203811  CLST          61          1.0000000000
       182        61  TIP3  H1            3.1897883329       -1.6962047516       -5.4151104523  CLST          61          1.0000000000
       183        61  TIP3  H2            2.1560616639       -0.9002453659       -6.2130881782  CLST          61          1.0000000000
       184        62  TIP3  OH2           7.9554171591        8.4353196885       12.4559833348  CLST          62          1.0000000000
       185        62  TIP3  H1            8.1164668761        7.5495474685       12.0933132266  CLST          62          1.0000000000
       186        62  TIP3  H2            8.0750924006        9.0291553847       11.6860785205  CLST          62          1.0000000000
       187        63  TIP3  OH2           4.6701747027       -7.0542625900      -10.2328657385  CLST          63          1.0000000000
       188        63  TIP3  H1            3.8043493179       -6.9596089747      -10.6996901668  CLST          63          1.0000000000
       189        63  TIP3  H2            5.1622321488       -7.5236839118      -10.9448668751  CLST          63          1.0000000000
       190        64  TIP3  OH2          -2.3851500590       11.7182986246        5.3335236257  CLST          64          1.0000000000
       191        64  TIP3  H1           -2.5023518814       10.7116071883        5.4036300459  CLST          64          1.0000000000
       192        64  TIP3  H2           -1.5975474646       11.7120256541        5.9805011847  CLST          64          1.0000000000
       193        65  TIP3  OH2          10.9960862634       -4.3416568445       -5.4006757983  CLST          65          1.0000000000
       194        65  TIP3  H1           11.3060965751       -4.0480473819       -6.3159633968  CLST          65          1.0000000000
       195        65  TIP3  H2           10.9352435808       -3.4293393047       -5.0265929293  CLST          65          1.0000000000
       196        66  TIP3  OH2           6.1582603394       -9.9303194101        9.3996512604  CLST          66          1.0000000000
       197        66  TIP3  H1            5.4588658992       -9.6393180863        8.7627414902  CLST          66          1.0000000000
       198        66  TIP3  H2            6.8634935104       -9.2848659664        9.1627507278  CLST          66          1.0000000000
       199        67  TIP3  OH2         -11.6576605078       -7.5875440620       -4.0681398996  CLST          67          1.0000000000
       200        67  TIP3  H1          -10.8591094039       -7.0686831127       -4.2993395641  CLST          67          1.0000000000
       201        67  TIP3  H2          -11.8531887517       -8.0164187734       -4.8975028318  CLST          67          1.0000000000
       202        68  TIP3  OH2          -0.7387549710       -5.3747185372        5.3262795962  CLST          68          1.0000000000
       203        68  TIP3  H1            0.2698262647       -5.4445317822        5.4715902882  CLST          68          1.0000000000
       204        68  TIP3  H2           -0.9527627932       -5.3021624162        6.3050492902  CLST          68          1.0000000000
       205        69  TIP3  OH2           7.9584295878       11.7212496205       -8.6532450092  CLST          69          1.0000000000
       206        69  TIP3  H1            8.5703923828       11.3597267932       -9.3435674954  CLST          69          1.0000000000
       207        69  TIP3  H2            8.7178753870       11.9176807887       -8.0514548557  CLST          69          1.0000000000
       208        70  TIP3  OH2          -1.0518688820      -12.4235527323       -0.5764563338  CLST          70          1.0000000000
       209        70  TIP3  H1           -0.0818312160      -12.3810792008       -0.6032446355  CLST          70          1.0000000000
       210        70  TIP3  H2           -1.0960542082      -12.8033802460        0.3520720864  CLST          70          1.0000000000
       211        71  TIP3  OH2         -10.2545447922       -7.3680593516        2.1041867150  CLST          71          1.0000000000
       212        71  TIP3  H1          -10.8070213046       -6.6987394424        2.5332809932  CLST          71          1.0000000000
       213        71  TIP3  H2          -10.7156905282       -7.7014249640        1.3155525368  CLST          71          1.0000000000
       214        72  TIP3  OH2           0.0822727763        2.0193019098       -1.5757123016  CLST          72          1.0000000000
       215        72  TIP3  H1           -0.3663663800        1.0960804042       -1.6404810014  CLST          72          1.0000000000
       216        72  TIP3  H2            0.9289046874        1.7874435891       -2.0255843880  CLST          72          1.0000000000
       217        73  TIP3  OH2          -9.7084270290       13.0489249357        7.4380336796  CLST          73          1.0000000000
       218        73  TIP3  H1           -9.7828951382       12.3057265477        6.7364758989  CLST          73          1.0000000000
       219        73  TIP3  H2          -10.3286674807       13.6367826362        6.8703087133  CLST          73          1.0000000000
       220        74  TIP3  OH2           6.5875847391       -2.5980914488       -3.7049987523  CLST          74          1.0000000000
       221        74  TIP3  H1            6.4666038278       -3.5489095011       -3.4025432465  CLST          74          1.0000000000
       222        74  TIP3  H2            7.5147763658       -2.4855677735       -3.3551910653  CLST          74          1.0000000000
       223        75  TIP3  OH2           2.9065870224      -13.2660569514       -6.6508949794  CLST          75          1.0000000000
       224        75  TIP3  H1            3.0889622021      -12.4535547499       -6.1219850059  CLST          75          1.0000000000
       225        75  TIP3  H2            3.0657132851      -13.8067043603       -5.8393119980  CLST          75          1.0000000000
       226        76  TIP3  OH2           3.9318078284       -9.7247289713        1.1723045406  CLST          76          1.0000000000
       227        76  TIP3  H1            4.2493387585       -8.8857478338        1.4907901448  CLST          76          1.0000000000
       228        76  TIP3  H2            3.0697427315       -9.9208759601        1.6016755773  CLST          76          1.0000000000
       229        77  TIP3  OH2          10.3094828787       -8.2673465103       -2.6212599250  CLST          77          1.0000000000
       230        77  TIP3  H1            9.7155319841       -9.0679992085       -2.4355038041  CLST          77          1.0000000000
       231        77  TIP3  H2           10.1817461130       -8.2240730133       -3.6041859486  CLST          77          1.0000000000
       232        78  TIP3  OH2          10.7282568476       11.5646637828       -7.6915759785  CLST          78          1.0000000000
       233        78  TIP3  H1           11.2830464837       10.9146841434       -8.1531494236  CLST          78          1.0000000000
       234        78  TIP3  H2           11.3469822166       12.2055157865       -7.5531050647  CLST          78          1.0000000000
       235        79  TIP3  OH2          12.8946698451        0.7247650269        1.2773008716  CLST          79          1.0000000000
       236        79  TIP3  H1           13.6638721321        0.9395261999        1.5496635624  CLST          79          1.0000000000
       237        79  TIP3  H2           12.2582429348        1.4027470772        1.6339132665  CLST          79          1.0000000000
       238        80  TIP3  OH2          -7.5181271302        0.0494802761        6.7049924528  CLST          80          1.0000000000
       239        80  TIP3  H1           -7.4890409495        0.6351658734        5.9361882388  CLST          80          1.0000000000
       240        80  TIP3  H2           -6.5619177229       -0.2750972625        6.7298789533  CLST          80          1.0000000000
       241        81  TIP3  OH2          -7.5372926452      -10.8116774307        2.3581608240  CLST          81          1.0000000000
       242        81  TIP3  H1           -6.7976026946      -10.9331309515        1.7507103527  CLST          81          1.0000000000
       243        81  TIP3  H2           -7.1046521846      -11.1643684965        3.2037891013  CLST          81          1.0000000000
       244        82  TIP3  OH2          -1.6031542562       -9.8811460900       -6.5384237682  CLST          82          1.0000000000
       245        82  TIP3  H1           -2.6398356292       -9.8826518184       -6.5714126597  CLST          82          1.0000000000
       246        82  TIP3  H2           -1.5252469064      -10.7655805410       -6.1421363321  CLST          82          1.0000000000
       247        83  TIP3  OH2          12.2394666157       -8.7097701313        1.5098288607  CLST          83          1.0000000000
       248        83  TIP3  H1           12.6728554931       -8.2119675532        2.2674910799  CLST          83          1.0000000000
       249        83  TIP3  H2           11.2825753737       -8.4733078279        1.5849964277  CLST          83          1.0000000000
       250        84  TIP3  OH2          -3.7674634770       10.9913093241       -2.2142400912  CLST          84          1.0000000000
       251        84  TIP3  H1           -4.6789032759       10.8437069100       -2.7082184273  CLST          84          1.0000000000
       252        84  TIP3  H2           -3.9345618871       11.8221512319       -1.8996692728  CLST          84          1.0000000000
       253        85  TIP3  OH2           5.9126076909       -2.0606925262        0.1881313658  CLST          85          1.0000000000
       254        85  TIP3  H1            6.0276493392       -1.3333487851        0.8005420828  CLST          85          1.0000000000
       255        85  TIP3  H2            6.7099825718       -2.5986527143        0.3161566282  CLST          85          1.0000000000
       256        86  TIP3  OH2           6.6182374369       -8.4546235772        5.7715496829  CLST          86          1.0000000000
       257        86  TIP3  H1            6.0560647962       -8.6658670501        6.5502202902  CLST          86          1.0000000000
       258        86  TIP3  H2            6.3314731006       -7.4918171244        5.6899421591  CLST          86          1.0000000000
       259        87  TIP3  OH2          -1.4383438134       -3.6348081511       10.5949542179  CLST          87          1.0000000000
       260        87  TIP3  H1           -0.9321333794       -3.9670711883       11.3655328554  CLST          87          1.0000000000
       261        87  TIP3  H2           -2.3802869080       -4.0332474375       10.7881027362  CLST          87          1.0000000000
       262        88  TIP3  OH2          -0.7778479434        4.3959291876       -7.9892286807  CLST          88          1.0000000000
       263        88  TIP3  H1           -1.2100463089        3.5124896986       -7.8069681338  CLST          88          1.0000000000
       264        88  TIP3  H2           -1.6545226203        4.9081809329       -8.0633388225  CLST          88          1.0000000000
       265        89  TIP3  OH2           3.4047103596        0.8066600440      -11.5835680761  CLST          89          1.0000000000
       266        89  TIP3  H1            3.3024040354        1.5857897903      -12.0712236982  CLST          89          1.0000000000
       267        89  TIP3  H2            3.4650632916        0.2562956887      -12.3466448190  CLST          89          1.0000000000
       268        90  TIP3  OH2           5.6434124936       11.2054780142       -5.4802261799  CLST          90          1.0000000000
       269        90  TIP3  H1            5.2680113728       11.8595870431       -4.8332609802  CLST          90          1.0000000000
       270        90  TIP3  H2            5.7115571070       11.7514477791       -6.3012977937  CLST          90          1.0000000000
       271        91  TIP3  OH2           5.9996406148       -7.9535069731      -12.3376926611  CLST          91          1.0000000000
       272        91  TIP3  H1            6.3331588871       -8.8906195355      -12.2050444959  CLST          91          1.0000000000
       273        91  TIP3  H2            6.8437479461       -7.4078748577      -12.2462413121  CLST          91          1.0000000000
       274        92  TIP3  OH2           9.9781966405       11.6582193045        2.4898346359  CLST          92          1.0000000000
       275        92  TIP3  H1           10.0898199456       11.9512591459        3.4481771679  CLST          92          1.0000000000
       276        92  TIP3  H2            9.4926659608       12.4911845758        2.1556108197  CLST          92          1.0000000000
       277        93  TIP3  OH2          -8.6179664828        7.2915060651        2.7159542685  CLST          93          1.0000000000
       278        93  TIP3  H1           -8.2678734707        7.9732990250        2.1126183530  CLST          93          1.0000000000
       279        93  TIP3  H2           -7.8561905416        7.0848128879        3.3328639327  CLST          93          1.0000000000
       280        94  TIP3  OH2         -14.2965681789        6.5188897848        6.5364598895  CLST          94          1.0000000000
       281        94  TIP3  H1          -13.7551617313        7.3544948386        6.4673593131  CLST          94          1.0000000000
       282        94  TIP3  H2          -14.3748802391        6.4203139595        5.5389785986  CLST          94          1.0000000000
       283        95  TIP3  OH2           9.6986509438        5.7317555640       -1.8888396971  CLST          95          1.0000000000
       284        95  TIP3  H1            9.6096415515        5.9973325721       -0.9398597108  CLST          95          1.0000000000
       285        95  TIP3  H2           10.5933794112        5.2901769026       -1.7975377820  CLST          95          1.0000000000
       286        96  TIP3  OH2           9.6575260092      -10.9948384311       11.2420763423  CLST          96          1.0000000000
       287        96  TIP3  H1           10.4013154878      -11.2473444707       10.6877583332  CLST          96          1.0000000000
       288        96  TIP3  H2            9.3110700830      -11.8623889522       11.4594036289  CLST          96          1.0000000000
       289        97  TIP3  OH2          -7.5981753593        6.8745569184        8.4777165992  CLST          97          1.0000000000
       290        97  TIP3  H1           -7.2751355527        5.9798638540        8.8431184719  CLST          97          1.0000000000
       291        97  TIP3  H2           -8.6036615685        6.6149379956        8.4719779462  CLST          97          1.0000000000
       292        98  TIP3  OH2           5.8639382861        0.6150902724       -3.4475433674  CLST          98          1.0000000000
       293        98  TIP3  H1            6.5501609791        0.2154536176       -2.8484738181  CLST          98          1.0000000000
       294        98  TIP3  H2            5.1437877226        0.0288211648       -3.0664422136  CLST          98          1.0000000000
       295        99  TIP3  OH2          -6.8454443725      -11.5486396568        4.7738324923  CLST          99          1.0000000000
       296        99  TIP3  H1           -7.1709657379      -11.5826137122        5.6840652234  CLST          99          1.0000000000
       297        99  TIP3  H2           -6.0198160869      -12.0428831790        4.9632626198  CLST          99          1.0000000000
       298       100  TIP3  OH2           2.4121657622        0.4657152403       -9.1701782300  CLST         100          1.0000000000
       299       100  TIP3  H1            2.8587403622        0.3980939189      -10.0830336910  CLST         100          1.0000000000
       300       100  TIP3  H2            2.8695969828        1.2953666974       -8.9755235397  CLST         100          1.0000000000
       301       101  TIP3  OH2          12.6681571803       -6.9126886945        3.7073257153  CLST         101          1.0000000000
       302       101  TIP3  H1           12.6689946065       -7.4581422318        4.5627910608  CLST         101          1.0000000000
       303       101  TIP3  H2           13.2030758708       -6.2145999851        4.1524040304  CLST         101          1.0000000000
       304       102  TIP3  OH2         -12.1239995020       10.3495283082        1.2896194256  CLST         102          1.0000000000
       305       102  TIP3  H1          -12.8530713380       10.0314665979        1.9346357501  CLST         102          1.0000000000
       306       102  TIP3  H2          -12.6664122283        9.9821193372        0.5096855222  CLST         102          1.0000000000
       307       103  TIP3  OH2          -0.6489425304       -9.3678284816        7.6171523477  CLST         103          1.0000000000
       308       103  TIP3  H1            0.0357372386       -9.3354222376        8.3542024575  CLST         103          1.0000000000
       309       103  TIP3  H2           -1.2137715429      -10.1094312283        7.9533219099  CLST         103          1.0000000000
       310       104  TIP3  OH2          -4.3370682811      -12.1309524942        9.9258670906  CLST         104          1.0000000000
       311       104  TIP3  H1           -4.8874676487      -11.6918184257       10.6154674398  CLST         104          1.0000000000
       312       104  TIP3  H2           -4.9695088129      -12.7047911232        9.4447643180  CLST         104          1.0000000000
       313       105  TIP3  OH2          -5.1643810097       10.7267773889      -11.4336208520  CLST         105          1.0000000000
       314       105  TIP3  H1           -4.7162926728       11.1334922038      -12.2121025569  CLST         105          1.0000000000
       315       105  TIP3  H2           -5.8205042068       10.1341565091      -11.8718203043  CLST         105          1.0000000000
       316       106  TIP3  OH2           7.3903128241       -8.1445569073       -1.3762247035  CLST         106          1.0000000000
       317       106  TIP3  H1            8.2353543113       -7.6780715752       -1.4559653304  CLST         106          1.0000000000
       318       106  TIP3  H2            7.6740700035       -9.0969678677       -1.4407047923  CLST         106          1.0000000000
       319       107  TIP3  OH2          -8.3634667543       -4.7835771092        5.1930513374  CLST         107          1.0000000000
       320       107  TIP3  H1           -8.8719472114       -4.2413384094        4.5652937591  CLST         107          1.0000000000
       321       107  TIP3  H2           -7.4365129816       -4.4313382515        4.9669939765  CLST         107          1.0000000000
       322       108  TIP3  OH2         -10.5348416435        2.0620135243        9.5656079185  CLST         108          1.0000000000
       323       108  TIP3  H1           -9.6174097084        1.8323672909        9.5159562327  CLST         108          1.0000000000
       324       108  TIP3  H2          -10.9972255980        1.1648524922        9.8741040557  CLST         108          1.0000000000
       325       109  TIP3  OH2           2.3148161875        7.0767933064        8.7302568599  CLST         109          1.0000000000
       326       109  TIP3  H1            1.6870065209        6.6149464549        9.3102022192  CLST         109          1.0000000000
       327       109  TIP3  H2            3.0893141418        6.5013183880        8.7529648953  CLST         109          1.0000000000
       328       110  TIP3  OH2           1.5930334751       12.3349350009      -11.1743428086  CLST         110          1.0000000000
       329       110  TIP3  H1            1.9465726715       13.1035150465      -11.2685515616  CLST         110          1.0000000000
       330       110  TIP3  H2            1.1614870038       12.2814040675      -10.2790371776  CLST         110          1.0000000000
       331       111  TIP3  OH2          11.8567665446      -11.6594631364        9.4796426363  CLST         111          1.0000000000
       332       111  TIP3  H1           12.6991447111      -12.0456890285        9.6293004877  CLST         111          1.0000000000
       333       111  TIP3  H2           11.3981783216      -12.4224855631        9.1177267796  CLST         111          1.0000000000
       334       112  TIP3  OH2           6.5068488510       -0.0800316572        1.6661362144  CLST         112          1.0000000000
       335       112  TIP3  H1            7.1745894220        0.6600268771        1.7525559291  CLST         112          1.0000000000
       336       112  TIP3  H2            6.2979761058       -0.2416433796        2.6446742600  CLST         112          1.0000000000
       337       113  TIP3  OH2         -13.0427048192        0.9869943300        0.1959547926  CLST         113          1.0000000000
       338       113  TIP3  H1          -13.7371083410        0.2287890400        0.0129480672  CLST         113          1.0000000000
       339       113  TIP3  H2          -12.5635466915        0.8051774738       -0.6232810990  CLST         113          1.0000000000
       340       114  TIP3  OH2         -13.8236044604        3.5897301325       -0.1723043355  CLST         114          1.0000000000
       341       114  TIP3  H1          -13.6218634678        2.6863131677        0.1710776474  CLST         114          1.0000000000
       342       114  TIP3  H2          -13.2301697137        3.5081012264       -0.9957722978  CLST         114          1.0000000000
       343       115  TIP3  OH2          -8.9467599958        0.3677303645      -10.7375691773  CLST         115          1.0000000000
       344       115  TIP3  H1           -8.1508053773        0.7391773804      -11.1077165325  CLST         115          1.0000000000
       345       115  TIP3  H2           -9.4949005165        1.1398459145      -10.8674544345  CLST         115          1.0000000000
       346       116  TIP3  OH2           6.8634280741       -5.6811745215        2.0544181849  CLST         116          1.0000000000
       347       116  TIP3  H1            7.6531689937       -6.1083139303        1.6214169927  CLST         116          1.0000000000
       348       116  TIP3  H2            7.0992000936       -4.7440038839        2.2028005086  CLST         116          1.0000000000
       349       117  TIP3  OH2          -0.8150375973        0.0300988779       12.5668545842  CLST         117          1.0000000000
       350       117  TIP3  H1           -0.3282545806       -0.7382807903       12.8571421664  CLST         117          1.0000000000
       351       117  TIP3  H2           -0.4321167061        0.6403943486       13.2131535675  CLST         117          1.0000000000
       352       118  TIP3  OH2           0.2047662152       -9.5323701391        4.9756282659  CLST         118          1.0000000000
       353       118  TIP3  H1           -0.0535669999       -9.3759728095        5.9461192684  CLST         118          1.0000000000
       354       118  TIP3  H2           -0.1651421979       -8.7462551192        4.5364884473  CLST         118          1.0000000000
       355       119  TIP3  OH2          -9.3570523726      -10.3056217296       -8.6931923381  CLST         119          1.0000000000
       356       119  TIP3  H1           -9.4375401705      -10.8408731072       -9.5525847886  CLST         119          1.0000000000
       357       119  TIP3  H2           -8.8513804958       -9.5881518749       -9.1668410549  CLST         119          1.0000000000
       358       120  TIP3  OH2           9.6423587181       -7.8776035949        1.2873535336  CLST         120          1.0000000000
       359       120  TIP3  H1            8.9430344102       -8.4499466525        0.9385772698  CLST         120          1.0000000000
       360       120  TIP3  H2            9.6387439634       -7.2454906071        0.5023458043  CLST         120          1.0000000000
       361       121  TIP3  OH2          -5.6438111349       -0.2843176357       -8.1728935054  CLST         121          1.0000000000
       362       121  TIP3  H1           -5.4607753960       -0.1228704134       -9.1459053867  CLST         121          1.0000000000
       363       121  TIP3  H2           -4.8481519363       -0.8606662719       -8.0760482961  CLST         121          1.0000000000
       364       122  TIP3  OH2          10.2874540508       12.0945292768        5.3795690519  CLST         122          1.0000000000
       365       122  TIP3  H1            9.4066397342       12.3628497808        5.7321669489  CLST         122          1.0000000000
       366       122  TIP3  H2           10.8462455050       12.2152759658        6.1834196576  CLST         122          1.0000000000
       367       123  TIP3  OH2          -7.3824974385       -5.4680667164      -11.2153350149  CLST         123          1.0000000000
       368       123  TIP3  H1           -6.7604174931       -6.1921155763      -11.3402517272  CLST         123          1.0000000000
       369       123  TIP3  H2           -7.4247982327       -5.4181332049      -10.2388489033  CLST         123          1.0000000000
       370       124  TIP3  OH2          -5.9981501453       -8.5317746204      -10.7295471705  CLST         124          1.0000000000
       371       124  TIP3  H1           -5.2088201563       -8.9155457343      -10.2095347837  CLST         124          1.0000000000
       372       124  TIP3  H2           -6.6164328425       -8.3082320440       -9.9428708862  CLST         124          1.0000000000
       373       125  TIP3  OH2         -13.5192345441        4.0966891165        8.1383478431  CLST         125          1.0000000000
       374       125  TIP3  H1          -13.4107117577        3.3762225728        7.5149121937  CLST         125          1.0000000000
       375       125  TIP3  H2          -13.8623827241        4.8819672456        7.6405144757  CLST         125          1.0000000000
       376       126  TIP3  OH2          -6.9868903157      -10.6894849640      -12.2995911337  CLST         126          1.0000000000
       377       126  TIP3  H1           -6.1147958988      -11.2085343590      -11.9957471505  CLST         126          1.0000000000
       378       126  TIP3  H2           -6.6975268512       -9.8509950742      -11.7159469214  CLST         126          1.0000000000
       379       127  TIP3  OH2          -7.3306313947      -11.6673682414       -7.2250784155  CLST         127          1.0000000000
       380       127  TIP3  H1           -7.9194118568      -12.4610086978       -7.3121246623  CLST         127          1.0000000000
       381       127  TIP3  H2           -7.7899914437      -11.1461661813       -7.9342686065  CLST         127          1.0000000000
       382       128  TIP3  OH2          10.0072194685        0.7561565588       -2.4100706040  CLST         128          1.0000000000
       383       128  TIP3  H1            9.0573923344        0.5542890188       -2.2975195989  CLST         128          1.0000000000
       384       128  TIP3  H2            9.9261647103        1.3205424602       -3.2361530801  CLST         128          1.0000000000
       385       129  TIP3  OH2          -7.8108512220        9.4874211324        1.0642097845  CLST         129          1.0000000000
       386       129  TIP3  H1           -6.9895219179       10.0168722177        1.3521767659  CLST         129          1.0000000000
       387       129  TIP3  H2           -7.2273083873        8.8326352000        0.5727194262  CLST         129          1.0000000000
       388       130  TIP3  OH2          -4.0956269042        4.0645703251        9.9728141105  CLST         130          1.0000000000
       389       130  TIP3  H1           -3.4995299850        4.8262676913        9.9143768557  CLST         130          1.0000000000
       390       130  TIP3  H2           -3.7346535886        3.5501874417       10.7314461481  CLST         130          1.0000000000
       391       131  TIP3  OH2           7.8647120606       -3.8557826254       -9.9298178899  CLST         131          1.0000000000
       392       131  TIP3  H1            7.7838388219       -3.1333104504       -9.2225732783  CLST         131          1.0000000000
       393       131  TIP3  H2            6.8644873176       -4.0033343663       -9.9724343426  CLST         131          1.0000000000
       394       132  TIP3  OH2         -11.4515674670       11.3642520122       12.1815530925  CLST         132          1.0000000000
       395       132  TIP3  H1          -11.0730607126       12.0914100492       11.5966221923  CLST         132          1.0000000000
       396       132  TIP3  H2          -11.7537723382       11.6338628131       12.9455104433  CLST         132          1.0000000000
       397       133  TIP3  OH2          10.2713271917        9.4467592078        8.6937562052  CLST         133          1.0000000000
       398       133  TIP3  H1           10.2640819259        9.2929580835        9.6681470435  CLST         133          1.0000000000
       399       133  TIP3  H2           11.1566349793        9.8935928508        8.6445833612  CLST         133          1.0000000000
       400       134  TIP3  OH2          -7.7670321175        5.8853890518       -6.1119312213  CLST         134          1.0000000000
       401       134  TIP3  H1           -8.3761384088        6.5888778399       -5.8937469290  CLST         134          1.0000000000
       402       134  TIP3  H2           -7.4798801844        5.6926511344       -5.1639626066  CLST         134          1.0000000000
       403       135  TIP3  OH2          10.6762296589      -11.1584594606      -13.1572127544  CLST         135          1.0000000000
       404       135  TIP3  H1           10.9068245696      -10.3095458229      -12.7047671315  CLST         135          1.0000000000
       405       135  TIP3  H2           11.1566658089      -11.2197333372      -13.8843417278  CLST         135          1.0000000000
       406       136  TIP3  OH2          -4.2733285926        1.8463751154       -6.9929619995  CLST         136          1.0000000000
       407       136  TIP3  H1           -4.8841410967        1.1251944107       -7.3831149554  CLST         136          1.0000000000
       408       136  TIP3  H2           -4.9810841443        2.2545030761       -6.4188656678  CLST         136          1.0000000000
       409       137  TIP3  OH2          12.9356746110       10.1513240966        9.1533919856  CLST         137          1.0000000000
       410       137  TIP3  H1           13.0155387891        9.8530308939       10.0552801319  CLST         137          1.0000000000
       411       137  TIP3  H2           13.7780677497        9.8310897160        8.7806051418  CLST         137          1.0000000000
       412       138  TIP3  OH2          -0.7858594008      -10.0055848715        1.7498556754  CLST         138          1.0000000000
       413       138  TIP3  H1           -1.0555532653       -9.6720019017        0.8871467613  CLST         138          1.0000000000
       414       138  TIP3  H2           -0.9323624027       -9.2808040466        2.3992085407  CLST         138          1.0000000000
       415       139  TIP3  OH2          -9.5955457137      -10.7045272554        4.4868337364  CLST         139          1.0000000000
       416       139  TIP3  H1          -10.2566297514      -10.6777770809        3.7684011617  CLST         139          1.0000000000
       417       139  TIP3  H2           -8.8830215513      -11.2460325659        4.0890983962  CLST         139          1.0000000000
       418       140  TIP3  OH2          -7.0071709785        3.3262632148       -0.3857485080  CLST         140          1.0000000000
       419       140  TIP3  H1           -6.1796737627        3.9107185738       -0.1738701486  CLST         140          1.0000000000
       420       140  TIP3  H2           -7.6436491789        4.0707544642       -0.5898716000  CLST         140          1.0000000000
       421       141  TIP3  OH2           2.0533215780       -4.4986519530       -3.6517555611  CLST         141          1.0000000000
       422       141  TIP3  H1            1.5302365963       -3.7481114684       -3.2632385017  CLST         141          1.0000000000
       423       141  TIP3  H2            2.7233811772       -3.9944993390       -4.1351187170  CLST         141          1.0000000000
       424       142  TIP3  OH2         -11.6643304891        0.0633791106        4.6940732919  CLST         142          1.0000000000
       425       142  TIP3  H1          -11.7361249339        0.7239630782        5.4209193358  CLST         142          1.0000000000
       426       142  TIP3  H2          -12.1112311708        0.5477312777        3.9559516245  CLST         142          1.0000000000
       427       143  TIP3  OH2           9.3494277342       -5.7415511325       -8.2751266442  CLST         143          1.0000000000
       428       143  TIP3  H1            9.5179419802       -4.9765884794       -8.8511032243  CLST         143          1.0000000000
       429       143  TIP3  H2           10.0290430749       -6.4096648641       -8.5986011769  CLST         143          1.0000000000
       430       144  TIP3  OH2           3.4040786510       -2.8216744587        8.9969143098  CLST         144          1.0000000000
       431       144  TIP3  H1            2.5847141636       -2.5312930169        9.5376470474  CLST         144          1.0000000000
       432       144  TIP3  H2            3.3261198600       -2.0984332519        8.3341947961  CLST         144          1.0000000000
       433       145  TIP3  OH2         -10.1529860333       13.4733568480        3.1579062276  CLST         145          1.0000000000
       434       145  TIP3  H1          -10.5825846123       13.3921277837        2.2524483648  CLST         145          1.0000000000
       435       145  TIP3  H2           -9.8072095464       12.5444226901        3.1203342286  CLST         145          1.0000000000
       436       146  TIP3  OH2           9.3411983408        2.6948992548       -4.2517878060  CLST         146          1.0000000000
       437       146  TIP3  H1            9.0163987768        3.5949404951       -4.0357491111  CLST         146          1.0000000000
       438       146  TIP3  H2            8.6630879287        2.5440461186       -4.9290191733  CLST         146          1.0000000000
       439       147  TIP3  OH2         -10.9775963246       -0.2763552512       -4.1305326949  CLST         147          1.0000000000
       440       147  TIP3  H1          -10.0294419900       -0.5221493891       -4.3224087238  CLST         147          1.0000000000
       441       147  TIP3  H2          -11.3611203272       -0.5196343551       -5.0117729916  CLST         147          1.0000000000
       442       148  TIP3  OH2          -7.9983685545        1.2895008756        8.9453209893  CLST         148          1.0000000000
       443       148  TIP3  H1           -7.8758106698        0.9804273066        7.9908399561  CLST         148          1.0000000000
       444       148  TIP3  H2           -6.9888266129        1.3481273379        9.0684142052  CLST         148          1.0000000000
       445       149  TIP3  OH2           8.5133391328       -2.9970586968        0.7563785947  CLST         149          1.0000000000
       446       149  TIP3  H1            9.2539521444       -2.3107468150        0.7280136864  CLST         149          1.0000000000
       447       149  TIP3  H2            8.1987354226       -2.7476957788        1.6675596731  CLST         149          1.0000000000
       448       150  TIP3  OH2          -2.1075769807      -11.5075721869        8.4669886627  CLST         150          1.0000000000
       449       150  TIP3  H1           -2.9476622873      -11.8793997606        8.8781437913  CLST         150          1.0000000000
       450       150  TIP3  H2           -1.5052678012      -11.8865308503        9.2136767984  CLST         150          1.0000000000
       451       151  TIP3  OH2          -9.1614163927       -6.5796926916       -5.0174859949  CLST         151          1.0000000000
       452       151  TIP3  H1           -8.2116707439       -6.6686756506       -4.5661833541  CLST         151          1.0000000000
       453       151  TIP3  H2           -9.0319527494       -7.4836063070       -5.4653128658  CLST         151          1.0000000000
       454       152  TIP3  OH2           3.8994750538       -1.9703430019        4.9289359964  CLST         152          1.0000000000
       455       152  TIP3  H1            4.3213599035       -2.6795591321        5.4667802359  CLST         152          1.0000000000
       456       152  TIP3  H2            3.8177488699       -2.5443689269        4.1204745754  CLST         152          1.0000000000
       457       153  TIP3  OH2          -2.7328748671        4.8680088317      -14.1157504129  CLST         153          1.0000000000
       458       153  TIP3  H1           -1.9214340191        5.2759761377      -13.7262950125  CLST         153          1.0000000000
       459       153  TIP3  H2           -2.9107430586        4.3466790984      -13.3089021342  CLST         153          1.0000000000
       460       154  TIP3  OH2           4.5024800045       -6.8221018982        2.0706253377  CLST         154          1.0000000000
       461       154  TIP3  H1            5.3731292370       -6.4003097642        1.7810497317  CLST         154          1.0000000000
       462       154  TIP3  H2            3.8422409898       -6.4179906742        1.4930632997  CLST         154          1.0000000000
       463       155  TIP3  OH2           9.4163971126       -2.6539777298       10.1750744680  CLST         155          1.0000000000
       464       155  TIP3  H1            8.7502078032       -3.0396419053        9.5747552082  CLST         155          1.0000000000
       465       155  TIP3  H2           10.0775873036       -3.3543353086       10.0665568089  CLST         155          1.0000000000
       466       156  TIP3  OH2          -2.0884567413       11.1695421760       11.5464501185  CLST         156          1.0000000000
       467       156  TIP3  H1           -2.8426111357       11.7658311921       11.5103471295  CLST         156          1.0000000000
       468       156  TIP3  H2           -2.6213446945       10.3360518778       11.7309967500  CLST         156          1.0000000000
       469       157  TIP3  OH2           3.9811871367       -0.7646246998        7.5046750760  CLST         157          1.0000000000
       470       157  TIP3  H1            4.9046601359       -0.9659726651        7.8701221737  CLST         157          1.0000000000
       471       157  TIP3  H2            4.0283907474       -1.0153574596        6.5409689351  CLST         157          1.0000000000
       472       158  TIP3  OH2          10.6513572755        9.0861974772       13.2986185087  CLST         158          1.0000000000
       473       158  TIP3  H1            9.7341154716        8.6787736698       13.2835895329  CLST         158          1.0000000000
       474       158  TIP3  H2           10.2833423856        9.9419136140       13.0101335302  CLST         158          1.0000000000
       475       159  TIP3  OH2           0.4256304468      -12.3211593400        4.4198816807  CLST         159          1.0000000000
       476       159  TIP3  H1           -0.1478672604      -12.6969596448        5.1489629580  CLST         159          1.0000000000
       477       159  TIP3  H2            0.2486981631      -11.3953497534        4.6927427784  CLST         159          1.0000000000
       478       160  TIP3  OH2           7.3476993336       -3.6229263945        8.5628822954  CLST         160          1.0000000000
       479       160  TIP3  H1            6.8918496856       -3.7334951161        7.6604991368  CLST         160          1.0000000000
       480       160  TIP3  H2            6.8348369707       -2.7465379294        8.7449994608  CLST         160          1.0000000000
       481       161  TIP3  OH2          -2.4190111319       -2.3664352816        7.7890549337  CLST         161          1.0000000000
       482       161  TIP3  H1           -1.9192506248       -1.8651559827        8.4976505625  CLST         161          1.0000000000
       483       161  TIP3  H2           -3.3165888551       -2.2156018704        8.1523854183  CLST         161          1.0000000000
       484       162  TIP3  OH2          -0.6214683653        3.5891818478      -10.7348319982  CLST         162          1.0000000000
       485       162  TIP3  H1           -0.4192995032        4.3658567886      -11.3344052428  CLST         162          1.0000000000
       486       162  TIP3  H2           -0.7144136757        3.9176943415       -9.7815426681  CLST         162          1.0000000000
       487       163  TIP3  OH2         -10.0771693633        9.0441072717       11.2021924222  CLST         163          1.0000000000
       488       163  TIP3  H1          -10.8460353061        8.4046240480       11.2440805215  CLST         163          1.0000000000
       489       163  TIP3  H2          -10.3820678440        9.7608913644       11.8049202311  CLST         163          1.0000000000
       490       164  TIP3  OH2           3.8681961160      -10.3107803208       12.9923674829  CLST         164          1.0000000000
       491       164  TIP3  H1            4.3385781826       -9.4701828473       12.9493263708  CLST         164          1.0000000000
       492       164  TIP3  H2            4.6852981903      -10.7678509127       12.7538119951  CLST         164          1.0000000000
       493       165  TIP3  OH2         -12.1449715051       -5.5961597607        3.6656533109  CLST         165          1.0000000000
       494       165  TIP3  H1          -11.8765343799       -5.4466255571        4.6329926626  CLST         165          1.0000000000
       495       165  TIP3  H2          -13.0759186414       -5.6881300437        3.8894373641  CLST         165          1.0000000000
       496       166  TIP3  OH2          -1.6402710185       -6.3952777397      -10.4977031334  CLST         166          1.0000000000
       497       166  TIP3  H1           -0.7111071218       -6.6857218519      -10.4912589605  CLST         166          1.0000000000
       498       166  TIP3  H2           -2.0880318940       -7.2553386903      -10.6042862673  CLST         166          1.0000000000
       499       167  TIP3  OH2           8.1004328858       10.6270777606       -0.8206247491  CLST         167          1.0000000000
       500       167  TIP3  H1            8.6709265329       10.0032751764       -0.2628987388  CLST         167          1.0000000000
       501       167  TIP3  H2            8.5007672171       10.4637628276       -1.6860704735  CLST         167          1.0000000000
       502       168  TIP3  OH2          -0.7928990226      -13.3351928978        1.9878312703  CLST         168          1.0000000000
       503       168  TIP3  H1           -0.5200947652      -12.9750813180        2.8729031315  CLST         168          1.0000000000
       504       168  TIP3  H2           -0.0240692290      -13.9362935535        1.8438028706  CLST         168          1.0000000000
       505       169  TIP3  OH2           5.0205405961        4.1038989232        3.3550998161  CLST         169          1.0000000000
       506       169  TIP3  H1            4.0262214837        3.9295677064        3.3222813746  CLST         169          1.0000000000
       507       169  TIP3  H2            5.0228601451        4.7737910443        2.6045940746  CLST         169          1.0000000000
       508       170  TIP3  OH2          -1.2649545917        4.1714340147        1.4476505518  CLST         170          1.0000000000
       509       170  TIP3  H1           -1.9451086829        4.8204495127        1.3861700654  CLST         170          1.0000000000
       510       170  TIP3  H2           -1.6207165208        3.2389148049        1.3317910368  CLST         170          1.0000000000
       511       171  TIP3  OH2          -3.0355627023        1.2701026371        7.3281541355  CLST         171          1.0000000000
       512       171  TIP3  H1           -2.6071543853        0.5376912370        6.7298524619  CLST         171          1.0000000000
       513       171  TIP3  H2           -2.1566389541        1.8373446228        7.3417510026  CLST         171          1.0000000000
       514       172  TIP3  OH2          -6.5002640078      -13.1649354848        8.0997786768  CLST         172          1.0000000000
       515       172  TIP3  H1           -6.5379786826      -14.1334750837        7.7586326681  CLST         172          1.0000000000
       516       172  TIP3  H2           -5.2216144060      -13.1473632171        6.7430168527  CLST         172          1.0000000000
       517       173  TIP3  OH2          10.3066478634      -12.5146662432        1.8364618466  CLST         173          1.0000000000
       518       173  TIP3  H1           10.5270872344      -12.3866486845        0.7231638962  CLST         173          1.0000000000
       519       173  TIP3  H2            9.3578559885      -12.6031836675        1.8940220080  CLST         173          1.0000000000
       520       174  TIP3  OH2           0.1113049574        5.4914485321        9.7610517508  CLST         174          1.0000000000
       521       174  TIP3  H1            0.0974359203        4.5918095977       10.1021256469  CLST         174          1.0000000000
       522       174  TIP3  H2           -0.7924894241        5.8080170825        9.9676565331  CLST         174          1.0000000000
       523       175  TIP3  OH2          -5.7747382119       10.4217888144       -3.6177851399  CLST         175          1.0000000000
       524       175  TIP3  H1           -5.5184682852       10.3096943261       -4.5498093234  CLST         175          1.0000000000
       525       175  TIP3  H2           -6.7119827120       10.1667090299       -3.7135854213  CLST         175          1.0000000000
       526       176  TIP3  OH2           6.7109377438        9.2136307946       -7.8941622081  CLST         176          1.0000000000
       527       176  TIP3  H1            6.9365675770       10.1553474794       -8.0519704463  CLST         176          1.0000000000
       528       176  TIP3  H2            6.1159213723        9.3324440238       -7.1256352221  CLST         176          1.0000000000
       529       177  TIP3  OH2          -3.8671523093      -11.3005072940       -1.5149599659  CLST         177          1.0000000000
       530       177  TIP3  H1           -3.3146795288      -11.9688803161       -1.1049552110  CLST         177          1.0000000000
       531       177  TIP3  H2           -4.5620932921      -11.2652824463       -0.7454731971  CLST         177          1.0000000000
       532       178  TIP3  OH2          10.8079177922       -8.8973484343      -11.5356670502  CLST         178          1.0000000000
       533       178  TIP3  H1           11.0404244299       -8.7355411075      -10.6135855339  CLST         178          1.0000000000
       534       178  TIP3  H2           10.8343072417       -7.9603615763      -11.8592173604  CLST         178          1.0000000000
       535       179  TIP3  OH2           6.5168600705       -0.9406863679        8.4713646340  CLST         179          1.0000000000
       536       179  TIP3  H1            6.1797199602       -0.4877607094        9.2787192441  CLST         179          1.0000000000
       537       179  TIP3  H2            7.2578861230       -0.3571445882        8.1830091812  CLST         179          1.0000000000
       538       180  TIP3  OH2          -7.5673179019        8.0470935916        5.9496131868  CLST         180          1.0000000000
       539       180  TIP3  H1           -7.4307070933        7.6068329493        6.8598796976  CLST         180          1.0000000000
       540       180  TIP3  H2           -8.5555300172        8.1596122585        5.9730455908  CLST         180          1.0000000000
       541       181  TIP3  OH2           5.9907342640      -12.9965612241       -0.3912609616  CLST         181          1.0000000000
       542       181  TIP3  H1            6.6833643373      -13.1397907397       -1.0834914762  CLST         181          1.0000000000
       543       181  TIP3  H2            6.4017737090      -13.0738219765        0.4704494197  CLST         181          1.0000000000
       544       182  TIP3  OH2          -1.6571229679       10.4061724237      -10.4121602575  CLST         182          1.0000000000
       545       182  TIP3  H1           -0.8859170246       10.7451635252       -9.9315745214  CLST         182          1.0000000000
       546       182  TIP3  H2           -2.3779248225       10.5085872528       -9.7503158033  CLST         182          1.0000000000
       547       183  TIP3  OH2          -5.4600488751        3.5976399440      -12.2807330457  CLST         183          1.0000000000
       548       183  TIP3  H1           -5.2543006212        3.4440724717      -11.3217816671  CLST         183          1.0000000000
       549       183  TIP3  H2           -6.3323390335        3.1354150554      -12.3329190821  CLST         183          1.0000000000
       550       184  TIP3  OH2           2.9708539721        8.2769142776       -2.3776171491  CLST         184          1.0000000000
       551       184  TIP3  H1            3.2005388096        7.5529809054       -1.7619808733  CLST         184          1.0000000000
       552       184  TIP3  H2            1.9968386477        7.9503779918       -2.4574848228  CLST         184          1.0000000000
       553       185  TIP3  OH2           7.4641565659        4.7475346082       12.0550986271  CLST         185          1.0000000000
       554       185  TIP3  H1            7.6614998425        3.7750299102       12.1982090356  CLST         185          1.0000000000
       555       185  TIP3  H2            7.0283612186        4.9842819010       12.9143172053  CLST         185          1.0000000000
       556       186  TIP3  OH2           3.7920526914        5.9956474506       -5.1027504684  CLST         186          1.0000000000
       557       186  TIP3  H1            4.0855289869        6.9798926337       -5.3164335286  CLST         186          1.0000000000
       558       186  TIP3  H2            3.8440602797        5.6132387960       -6.0385836334  CLST         186          1.0000000000
       559       187  TIP3  OH2           4.0034475995        1.7081366567       -5.5382574644  CLST         187          1.0000000000
       560       187  TIP3  H1            4.1855219542        1.6298749806       -4.5897564850  CLST         187          1.0000000000
       561       187  TIP3  H2            3.6335478324        0.7811741808       -5.6138062465  CLST         187          1.0000000000
       562       188  TIP3  OH2          -4.6675446394       -1.6330096403        4.8159649385  CLST         188          1.0000000000
       563       188  TIP3  H1           -4.9228754448       -0.8301506999        4.3368777187  CLST         188          1.0000000000
       564       188  TIP3  H2           -4.6591504773       -1.3687225458        5.7483459039  CLST         188          1.0000000000
       565       189  TIP3  OH2          -5.0672233975        3.6001367804      -15.1360870466  CLST         189          1.0000000000
       566       189  TIP3  H1           -5.0760675023        3.7768100748      -14.1671755142  CLST         189          1.0000000000
       567       189  TIP3  H2           -4.1921642044        3.9278222118      -15.3181032198  CLST         189          1.0000000000
       568       190  TIP3  OH2           7.2654183439       -5.6484502077        5.2818253829  CLST         190          1.0000000000
       569       190  TIP3  H1            7.2371837364       -5.7065389863        4.2835829353  CLST         190          1.0000000000
       570       190  TIP3  H2            8.2302749021       -5.8412371109        5.2782638740  CLST         190          1.0000000000
       571       191  TIP3  OH2         -11.0508638107       -4.8469963668       -6.6013778727  CLST         191          1.0000000000
       572       191  TIP3  H1          -10.2080819806       -4.6446037207       -7.0456686985  CLST         191          1.0000000000
       573       191  TIP3  H2          -10.7751985254       -5.7577571009       -6.3548292504  CLST         191          1.0000000000
       574       192  TIP3  OH2           8.9005190876       14.2945999631        1.9656449577  CLST         192          1.0000000000
       575       192  TIP3  H1            8.1206907546       14.4689531951        2.5078014378  CLST         192          1.0000000000
       576       192  TIP3  H2            9.5533182399       14.9181456823        2.1770563843  CLST         192          1.0000000000
       577       193  TIP3  OH2           6.1931306582      -12.1436185183       11.7571901828  CLST         193          1.0000000000
       578       193  TIP3  H1            6.8116934147      -12.8729545651       11.7170605558  CLST         193          1.0000000000
       579       193  TIP3  H2            6.0009586527      -11.7853617489       10.8827228765  CLST         193          1.0000000000
       580       194  TIP3  OH2          -6.3216050204       -4.4747598859       11.0839105985  CLST         194          1.0000000000
       581       194  TIP3  H1           -6.8179501414       -4.2100539957       11.8179645763  CLST         194          1.0000000000
       582       194  TIP3  H2           -6.9341850078       -4.2502317287       10.3269714143  CLST         194          1.0000000000
       583       195  TIP3  OH2          -7.4021352950        9.1222825715       10.3028436592  CLST         195          1.0000000000
       584       195  TIP3  H1           -8.2785949320        8.9045037723       10.6789292999  CLST         195          1.0000000000
       585       195  TIP3  H2           -7.5583697866        8.5586936434        9.4884992461  CLST         195          1.0000000000
       586       196  TIP3  OH2           6.0606694090      -12.2650276723       -5.8258218271  CLST         196          1.0000000000
       587       196  TIP3  H1            6.2675345305      -11.5397725044       -6.4711378267  CLST         196          1.0000000000
       588       196  TIP3  H2            5.2168149803      -11.8702922617       -5.5286676722  CLST         196          1.0000000000
       589       197  TIP3  OH2           2.2960478756       -9.1340474323       -2.9123730421  CLST         197          1.0000000000
       590       197  TIP3  H1            1.7936732971       -8.3211787238       -2.5628290073  CLST         197          1.0000000000
       591       197  TIP3  H2            3.1819572193       -8.7769284666       -2.6632240002  CLST         197          1.0000000000
       592       198  TIP3  OH2          10.8125957347        1.7225837204        4.5710964374  CLST         198          1.0000000000
       593       198  TIP3  H1            9.9000533246        1.6044331595        4.2202397857  CLST         198          1.0000000000
       594       198  TIP3  H2           11.0087196542        2.6398560817        4.3123437514  CLST         198          1.0000000000
       595       199  TIP3  OH2          -0.1190410013        8.3081187694       -5.9879491332  CLST         199          1.0000000000
       596       199  TIP3  H1           -0.6577909276        8.7512374738       -5.2832326805  CLST         199          1.0000000000
       597       199  TIP3  H2           -0.3437208589        7.3373626812       -5.7959913827  CLST         199          1.0000000000
       598       200  TIP3  OH2          -7.5499566268       11.9305325972       10.9211785247  CLST         200          1.0000000000
       599       200  TIP3  H1           -7.6795158422       10.9388318134       10.8506794517  CLST         200          1.0000000000
       600       200  TIP3  H2           -7.3978111557       12.1029842598        9.9249429573  CLST         200          1.0000000000
       601       201  TIP3  OH2           4.5230403782        0.9225584694       -0.1687119981  CLST         201          1.0000000000
       602       201  TIP3  H1            4.4462241154        1.8264909512        0.1860080877  CLST         201          1.0000000000
       603       201  TIP3  H2            5.1925013514        0.6683251665        0.5050243277  CLST         201          1.0000000000
       604       202  TIP3  OH2          -1.9474396352       -4.2368936754      -12.4276488562  CLST         202          1.0000000000
       605       202  TIP3  H1           -1.7131760688       -4.8752304954      -11.7238664668  CLST         202          1.0000000000
       606       202  TIP3  H2           -2.5366832714       -3.6471397199      -11.9142165474  CLST         202          1.0000000000
       607       203  TIP3  OH2          -0.6438552354       11.3056335708        7.4470673631  CLST         203          1.0000000000
       608       203  TIP3  H1            0.1987988820       11.1808202816        7.9258961698  CLST         203          1.0000000000
       609       203  TIP3  H2           -1.2635847199       10.8575974354        8.0218786473  CLST         203          1.0000000000
       610       204  TIP3  OH2          -5.4264752791        6.4454454771      -13.3109338191  CLST         204          1.0000000000
       611       204  TIP3  H1           -4.6579407008        6.2133951088      -13.8600989694  CLST         204          1.0000000000
       612       204  TIP3  H2           -5.7089930067        5.5542696846      -13.0456553520  CLST         204          1.0000000000
       613       205  TIP3  OH2          -2.4290639011        7.0854381026       -2.6989149849  CLST         205          1.0000000000
       614       205  TIP3  H1           -2.4035893390        7.7427463407       -3.5361588542  CLST         205          1.0000000000
       615       205  TIP3  H2           -1.4385770501        7.1279888741       -2.5787262389  CLST         205          1.0000000000
       616       206  TIP3  OH2           4.9856332934      -11.0483089909       -9.8288182221  CLST         206          1.0000000000
       617       206  TIP3  H1            5.0914429448      -12.0076734402       -9.4640947255  CLST         206          1.0000000000
       618       206  TIP3  H2            5.6429018021      -10.6627683416       -9.1740499193  CLST         206          1.0000000000
       619       207  TIP3  OH2          12.9149434974       10.1587086558       12.0790195040  CLST         207          1.0000000000
       620       207  TIP3  H1           12.2499511416        9.7664742091       12.8324175578  CLST         207          1.0000000000
       621       207  TIP3  H2           13.5645712919       10.5531513557       12.3509666588  CLST         207          1.0000000000
       622       208  TIP3  OH2         -11.4938250821        2.3366676675        6.8473995507  CLST         208          1.0000000000
       623       208  TIP3  H1          -11.1156962407        2.2176669664        7.7424734832  CLST         208          1.0000000000
       624       208  TIP3  H2          -11.1463483512        3.2294129504        6.6033618935  CLST         208          1.0000000000
       625       209  TIP3  OH2           4.5492773366       -9.2157680366        7.3610638951  CLST         209          1.0000000000
       626       209  TIP3  H1            4.1910675731       -9.7559031952        6.6150170136  CLST         209          1.0000000000
       627       209  TIP3  H2            3.7950065044       -8.5653016978        7.4009776418  CLST         209          1.0000000000
       628       210  TIP3  OH2          12.1468485147      -11.1563600007        5.3372171797  CLST         210          1.0000000000
       629       210  TIP3  H1           12.4019859932      -11.0861545187        4.3810605906  CLST         210          1.0000000000
       630       210  TIP3  H2           12.1265509379      -10.2363016074        5.6955912761  CLST         210          1.0000000000
       631       211  TIP3  OH2          -0.2197569063       -9.1523313604       12.1681292131  CLST         211          1.0000000000
       632       211  TIP3  H1            0.3165059961       -9.6083301852       12.8955857287  CLST         211          1.0000000000
       633       211  TIP3  H2           -0.9255028343       -9.8587981202       12.0149642780  CLST         211          1.0000000000
       634       212  TIP3  OH2         -12.4455861634        3.3771635240       -2.4326018068  CLST         212          1.0000000000
       635       212  TIP3  H1          -11.8781924450        3.9873474798       -2.9775450684  CLST         212          1.0000000000
       636       212  TIP3  H2          -11.8596118004        2.5651980977       -2.4697303254  CLST         212          1.0000000000
       637       213  TIP3  OH2          -9.3454953119      -11.4970820580      -11.4246400599  CLST         213          1.0000000000
       638       213  TIP3  H1           -9.6338770117      -11.7913916935      -12.2123581225  CLST         213          1.0000000000
       639       213  TIP3  H2           -8.2978239020      -11.2356309774      -12.6044765571  CLST         213          1.0000000000
       640       214  TIP3  OH2          -6.4836700651        2.3825040600       -5.3993826316  CLST         214          1.0000000000
       641       214  TIP3  H1           -6.3967275176        1.5164606411       -5.0015649030  CLST         214          1.0000000000
       642       214  TIP3  H2           -7.0005091019        2.9111259841       -4.7425080756  CLST         214          1.0000000000
       643       215  TIP3  OH2         -11.7276108824      -12.8217497774        5.7430970858  CLST         215          1.0000000000
       644       215  TIP3  H1          -10.8512261838      -12.4286175172        5.5960828319  CLST         215          1.0000000000
       645       215  TIP3  H2          -11.8705461142      -12.9648209287        4.7807213385  CLST         215          1.0000000000
       646       216  TIP3  OH2         -11.9108111182       -2.2043331810        8.0646569176  CLST         216          1.0000000000
       647       216  TIP3  H1          -10.8945167319       -2.0423544621        8.1015924600  CLST         216          1.0000000000
       648       216  TIP3  H2          -11.8882469517       -3.0290173933        8.5859194776  CLST         216          1.0000000000
       649       217  TIP3  OH2           7.6483106128       -0.2484371291       -1.5609145792  CLST         217          1.0000000000
       650       217  TIP3  H1            8.2165983519       -1.0575454754       -1.6007461839  CLST         217          1.0000000000
       651       217  TIP3  H2            6.9477504437       -0.5570191793       -0.9357470737  CLST         217          1.0000000000
       652       218  TIP3  OH2          -8.2017476038       -3.8755148581        9.1538112848  CLST         218          1.0000000000
       653       218  TIP3  H1           -8.5189435561       -2.9682964963        8.8353522991  CLST         218          1.0000000000
       654       218  TIP3  H2           -7.7180640337       -4.2822357447        8.3975333459  CLST         218          1.0000000000
       655       219  TIP3  OH2         -12.5226386454       -4.5383848891       -2.6456724847  CLST         219          1.0000000000
       656       219  TIP3  H1          -12.5784912447       -3.5975229527       -2.3243422494  CLST         219          1.0000000000
       657       219  TIP3  H2          -13.0501795790       -4.3689458910       -3.4846746777  CLST         219          1.0000000000
       658       220  TIP3  OH2           6.3660776804        6.8381138817        7.7100393104  CLST         220          1.0000000000
       659       220  TIP3  H1            5.9593812201        6.4850993425        6.8841390854  CLST         220          1.0000000000
       660       220  TIP3  H2            5.5050775064        6.6416242935        8.1609878479  CLST         220          1.0000000000
       661       221  TIP3  OH2         -10.3716937438       -7.0793919942       10.1626374765  CLST         221          1.0000000000
       662       221  TIP3  H1           -9.4598804503       -6.8825301072       10.2807505306  CLST         221          1.0000000000
       663       221  TIP3  H2          -10.4285147987       -8.0202043460        9.7805597642  CLST         221          1.0000000000
       664       222  TIP3  OH2          -6.7528440165       -0.7447817605      -13.6510895915  CLST         222          1.0000000000
       665       222  TIP3  H1           -6.2875665489       -1.6353890733      -13.6539319618  CLST         222          1.0000000000
       666       222  TIP3  H2           -7.5733223324       -0.9993823280      -13.1819997989  CLST         222          1.0000000000
       667       223  TIP3  OH2           2.8089835666      -10.7605423982      -11.6094568672  CLST         223          1.0000000000
       668       223  TIP3  H1            2.3316763415      -11.6362414831      -11.4581818277  CLST         223          1.0000000000
       669       223  TIP3  H2            3.6561916573      -10.9185989570      -11.1018689178  CLST         223          1.0000000000
       670       224  TIP3  OH2           7.5551593720        4.6464452279        0.6219064939  CLST         224          1.0000000000
       671       224  TIP3  H1            8.5029177358        4.7708095888        0.7979969058  CLST         224          1.0000000000
       672       224  TIP3  H2            7.5520429246        4.4808852404       -0.3610163772  CLST         224          1.0000000000
       673       225  TIP3  OH2          -0.1781975946        4.7155079180       -1.1603961858  CLST         225          1.0000000000
       674       225  TIP3  H1           -0.7737592199        4.5486971413       -0.3715783787  CLST         225          1.0000000000
       675       225  TIP3  H2            0.0266409705        3.7416153461       -1.3300182636  CLST         225          1.0000000000
       676       226  TIP3  OH2          -5.8561209113       -4.4283894184        7.5732587626  CLST         226          1.0000000000
       677       226  TIP3  H1           -5.7439048125       -5.3879190116        7.7336510834  CLST         226          1.0000000000
       678       226  TIP3  H2           -5.9729691703       -4.4054282165        6.6101665030  CLST         226          1.0000000000
       679       227  TIP3  OH2          11.5831353403       -4.2062617021       -9.8438137295  CLST         227          1.0000000000
       680       227  TIP3  H1           11.9075964167       -3.7892226464       -8.9464098808  CLST         227          1.0000000000
       681       227  TIP3  H2           11.3947595720       -3.3413375415      -10.2474663586  CLST         227          1.0000000000
       682       228  TIP3  OH2           3.5934303282       12.3256350803        3.2566811935  CLST         228          1.0000000000
       683       228  TIP3  H1            2.8399866710       11.8386228705        3.8445895676  CLST         228          1.0000000000
       684       228  TIP3  H2            3.0004339580       12.3613778299        2.4794078585  CLST         228          1.0000000000
       685       229  TIP3  OH2         -11.4671880807      -13.2002707196        2.9926828366  CLST         229          1.0000000000
       686       229  TIP3  H1          -11.7424264640      -13.9080823415        2.6440302813  CLST         229          1.0000000000
       687       229  TIP3  H2          -10.9355579010      -12.3977472663        2.3159746765  CLST         229          1.0000000000
       688       230  TIP3  OH2          12.3422483286        6.2830898052       -3.4498297608  CLST         230          1.0000000000
       689       230  TIP3  H1           13.2759312682        6.4782693966       -3.4214432430  CLST         230          1.0000000000
       690       230  TIP3  H2           12.3813602341        5.3350300033       -3.7567371906  CLST         230          1.0000000000
       691       231  TIP3  OH2           7.1584318587        3.3189197979        4.7806825561  CLST         231          1.0000000000
       692       231  TIP3  H1            7.3007974843        4.2903870775        4.8425609937  CLST         231          1.0000000000
       693       231  TIP3  H2            6.2019453826        3.3390799903        4.4825682045  CLST         231          1.0000000000
       694       232  TIP3  OH2         -10.4270899849        9.0481029055        7.5279580117  CLST         232          1.0000000000
       695       232  TIP3  H1          -10.9192385260        9.4205521490        8.3161230744  CLST         232          1.0000000000
       696       232  TIP3  H2          -10.3089540011        8.1307213669        7.9099754940  CLST         232          1.0000000000
       697       233  TIP3  OH2           3.5440452942       -5.4173408523        7.9806153436  CLST         233          1.0000000000
       698       233  TIP3  H1            4.3315066544       -5.6956214059        8.5420377522  CLST         233          1.0000000000
       699       233  TIP3  H2            3.3176390761       -4.5975696358        8.5243535347  CLST         233          1.0000000000
       700       234  TIP3  OH2          -3.5195658932        8.5363561747       -0.5511444521  CLST         234          1.0000000000
       701       234  TIP3  H1           -3.3553995833        7.8910991188       -1.3037146807  CLST         234          1.0000000000
       702       234  TIP3  H2           -3.6044055173        9.3505805645       -1.1387260259  CLST         234          1.0000000000
       703       235  TIP3  OH2          -1.8392554941       -4.0252423126       -9.0541861647  CLST         235          1.0000000000
       704       235  TIP3  H1           -1.8973182760       -4.9516224955       -9.3238942736  CLST         235          1.0000000000
       705       235  TIP3  H2           -0.9333134718       -3.7536690255       -9.3266709200  CLST         235          1.0000000000
       706       236  TIP3  OH2          -0.2749161352      -13.5062763146       -3.1051817446  CLST         236          1.0000000000
       707       236  TIP3  H1            0.4086474126      -12.7289852516       -2.9944719019  CLST         236          1.0000000000
       708       236  TIP3  H2           -0.6603026487      -13.3237147812       -2.2233437319  CLST         236          1.0000000000
       709       237  TIP3  OH2          -3.6842804517       -4.9731561027       10.8911696389  CLST         237          1.0000000000
       710       237  TIP3  H1           -4.6512821833       -4.9949633684       10.9184477132  CLST         237          1.0000000000
       711       237  TIP3  H2           -3.5877099372       -5.7624593404       10.3145481057  CLST         237          1.0000000000
       712       238  TIP3  OH2           0.5450302370        4.6941680247        7.2781582474  CLST         238          1.0000000000
       713       238  TIP3  H1           -0.1002588711        5.2374992812        6.7511967691  CLST         238          1.0000000000
       714       238  TIP3  H2            0.4250193410        5.0678948271        8.1954042417  CLST         238          1.0000000000
       715       239  TIP3  OH2         -13.9506766328        5.9027457056        3.6946236401  CLST         239          1.0000000000
       716       239  TIP3  H1          -14.1298498724        6.3185271293        2.8560151600  CLST         239          1.0000000000
       717       239  TIP3  H2          -13.3220319637        5.1837556738        3.4759741492  CLST         239          1.0000000000
       718       240  TIP3  OH2         -14.1291002075        8.8766469809       -0.2596630772  CLST         240          1.0000000000
       719       240  TIP3  H1          -14.8563174044        9.0983129308        0.2388009725  CLST         240          1.0000000000
       720       240  TIP3  H2          -13.9479944315        7.9068423230        0.0178630867  CLST         240          1.0000000000
       721       241  TIP3  OH2          -7.6415215660       -7.7687124004       -8.5754167534  CLST         241          1.0000000000
       722       241  TIP3  H1           -7.9187819646       -8.0885110895       -7.6459804351  CLST         241          1.0000000000
       723       241  TIP3  H2           -7.4082725979       -6.8289623228       -8.3472883619  CLST         241          1.0000000000
       724       242  TIP3  OH2           6.0249490097       -5.7293344814        9.7062975928  CLST         242          1.0000000000
       725       242  TIP3  H1            6.5973566151       -4.9687021865        9.4022424518  CLST         242          1.0000000000
       726       242  TIP3  H2            6.6377122029       -6.4482670576        9.3645674064  CLST         242          1.0000000000
       727       243  TIP3  OH2          -6.6315288750       -7.2397383727       -4.1987018402  CLST         243          1.0000000000
       728       243  TIP3  H1           -6.3208547640       -8.1257825369       -4.4651829696  CLST         243          1.0000000000
       729       243  TIP3  H2           -6.7241082464       -7.4736242339       -3.2508096325  CLST         243          1.0000000000
       730       244  TIP3  OH2           4.8659247519        5.8777551184        5.4048152222  CLST         244          1.0000000000
       731       244  TIP3  H1            5.1961985125        5.3118410111        4.6923781919  CLST         244          1.0000000000
       732       244  TIP3  H2            4.0723538244        5.3655782384        5.6161592327  CLST         244          1.0000000000
       733       245  TIP3  OH2          -7.0549047352        3.5660254023       -7.7496527420  CLST         245          1.0000000000
       734       245  TIP3  H1           -6.9057952174        3.1000964847       -6.8778958145  CLST         245          1.0000000000
       735       245  TIP3  H2           -7.3683275880        4.4204385208       -7.4702416568  CLST         245          1.0000000000
       736       246  TIP3  OH2           2.0625990090       -6.6368080435       -1.8682830908  CLST         246          1.0000000000
       737       246  TIP3  H1            2.0784535106       -5.9161672953       -2.6050210108  CLST         246          1.0000000000
       738       246  TIP3  H2            3.0478009445       -6.7696637011       -1.7960279822  CLST         246          1.0000000000
       739       247  TIP3  OH2           5.9942775407        7.9317765553        0.5307726388  CLST         247          1.0000000000
       740       247  TIP3  H1            6.2408323212        7.7030481847       -0.4402591737  CLST         247          1.0000000000
       741       247  TIP3  H2            5.8229267251        8.8885576376        0.4828693689  CLST         247          1.0000000000
       742       248  TIP3  OH2          -2.3791722493        8.2327334686      -12.0195209860  CLST         248          1.0000000000
       743       248  TIP3  H1           -2.2510700988        8.6078613919      -12.9144557879  CLST         248          1.0000000000
       744       248  TIP3  H2           -1.9868496417        8.9547503772      -11.4609098557  CLST         248          1.0000000000
       745       249  TIP3  OH2           9.0052207929        4.5227115693       -7.6954482839  CLST         249          1.0000000000
       746       249  TIP3  H1            8.4214483570        5.2423281310       -7.3272991055  CLST         249          1.0000000000
       747       249  TIP3  H2            8.5400913035        3.7849249910       -7.1911095487  CLST         249          1.0000000000
       748       250  TIP3  OH2          -7.7475513845        9.6026593758       -5.2691598795  CLST         250          1.0000000000
       749       250  TIP3  H1           -8.0620174546        8.8280619910       -5.6932849301  CLST         250          1.0000000000
       750       250  TIP3  H2           -7.9811885203       10.3419011227       -5.8441301152  CLST         250          1.0000000000
       751       251  TIP3  OH2          -3.5586866467       12.3619298407        3.0126479679  CLST         251          1.0000000000
       752       251  TIP3  H1           -2.8628728559       12.5528624753        2.4306423793  CLST         251          1.0000000000
       753       251  TIP3  H2           -3.0351819108       12.2491582764        3.8484134097  CLST         251          1.0000000000
       754       252  TIP3  OH2           5.8875533695        5.3586689973       14.4774967328  CLST         252          1.0000000000
       755       252  TIP3  H1            5.6519805705        6.3007502203       14.4053954725  CLST         252          1.0000000000
       756       252  TIP3  H2            5.6343201977        5.1600435182       15.2933699437  CLST         252          1.0000000000
       757       253  TIP3  OH2           6.1692846476       13.9216310894        3.1148573647  CLST         253          1.0000000000
       758       253  TIP3  H1            5.2528345492       13.8238792392        3.4591609112  CLST         253          1.0000000000
       759       253  TIP3  H2            5.9665610402       13.6661795872        2.2034344888  CLST         253          1.0000000000
       760       254  TIP3  OH2          -4.0497179531        8.0501150472        3.0167927025  CLST         254          1.0000000000
       761       254  TIP3  H1           -4.4071864458        8.9668138244        2.9016117078  CLST         254          1.0000000000
       762       254  TIP3  H2           -4.9465559568        7.6519270863        3.0605051477  CLST         254          1.0000000000
       763       255  TIP3  OH2          -7.1060307727       10.4427416279        4.1813362658  CLST         255          1.0000000000
       764       255  TIP3  H1           -8.0483304703       10.7112900602        4.2007705554  CLST         255          1.0000000000
       765       255  TIP3  H2           -7.1536482009        9.6121369185        4.7245350557  CLST         255          1.0000000000
       766       256  TIP3  OH2          11.4900373848        3.7880638175       -1.3880798173  CLST         256          1.0000000000
       767       256  TIP3  H1           11.8575923727        3.0670625471       -1.9641982905  CLST         256          1.0000000000
       768       256  TIP3  H2           11.1323955283        3.2626121827       -0.6344382824  CLST         256          1.0000000000
       769       257  TIP3  OH2          -8.4109051222       -1.1315676771       -4.9287284567  CLST         257          1.0000000000
       770       257  TIP3  H1           -7.5603678040       -0.8078540837       -4.5312646204  CLST         257          1.0000000000
       771       257  TIP3  H2           -8.1867872371       -0.9576253595       -5.8496654510  CLST         257          1.0000000000
       772       258  TIP3  OH2          -5.3134667325       10.2308825813        7.8347532971  CLST         258          1.0000000000
       773       258  TIP3  H1           -5.3257488832       10.9755165857        7.1312211341  CLST         258          1.0000000000
       774       258  TIP3  H2           -5.9437398886       10.7230177514        8.4327289207  CLST         258          1.0000000000
       775       259  TIP3  OH2          10.1213610939        6.0362569114        0.9319295151  CLST         259          1.0000000000
       776       259  TIP3  H1           11.0022636905        6.5048484817        1.0968100647  CLST         259          1.0000000000
       777       259  TIP3  H2            9.7055623487        6.3401866411        1.7727171486  CLST         259          1.0000000000
       778       260  TIP3  OH2          -4.8676286275        7.6874000381        8.7649252478  CLST         260          1.0000000000
       779       260  TIP3  H1           -5.2893464371        8.4725908673        8.3019200305  CLST         260          1.0000000000
       780       260  TIP3  H2           -5.6547063251        7.0681450861        8.7300120043  CLST         260          1.0000000000
       781       261  TIP3  OH2           0.7720912269       -4.3210901339       12.3393818229  CLST         261          1.0000000000
       782       261  TIP3  H1            0.4293976726       -5.3038435311       12.4533345534  CLST         261          1.0000000000
       783       261  TIP3  H2            1.6761714395       -4.5336297794       12.6173472969  CLST         261          1.0000000000
       784       262  TIP3  OH2         -10.9518967104        4.7620351622        6.0860444890  CLST         262          1.0000000000
       785       262  TIP3  H1          -10.2473210727        4.5992893913        5.3765109847  CLST         262          1.0000000000
       786       262  TIP3  H2          -11.7466840157        5.1188807454        5.6085685292  CLST         262          1.0000000000
       787       263  TIP3  OH2           1.7148801676        0.8074646512        6.6612702717  CLST         263          1.0000000000
       788       263  TIP3  H1            2.2679479636        1.5465540220        6.3363179817  CLST         263          1.0000000000
       789       263  TIP3  H2            2.3636636494        0.2768155740        7.1790203539  CLST         263          1.0000000000
       790       264  TIP3  OH2           5.1504456822       -4.3580972931       -9.5387398565  CLST         264          1.0000000000
       791       264  TIP3  H1            4.8884262147       -5.3178305535       -9.6972468140  CLST         264          1.0000000000
       792       264  TIP3  H2            4.3980364617       -3.9827703217      -10.1013268393  CLST         264          1.0000000000
       793       265  TIP3  OH2           7.6522686814        4.9284372234      -10.1527584102  CLST         265          1.0000000000
       794       265  TIP3  H1            7.7931930662        5.9345052023      -10.4291884640  CLST         265          1.0000000000
       795       265  TIP3  H2            8.3388930132        4.9411918946       -9.3647598973  CLST         265          1.0000000000
       796       266  TIP3  OH2          -7.9369652970       -8.7574325488       -0.0078225710  CLST         266          1.0000000000
       797       266  TIP3  H1           -7.8081841757       -9.1663859371        0.8907857584  CLST         266          1.0000000000
       798       266  TIP3  H2           -8.2328513404       -7.8586403408        0.1635790074  CLST         266          1.0000000000
       799       267  TIP3  OH2           1.1274994658        2.6348098221       -5.2644804955  CLST         267          1.0000000000
       800       267  TIP3  H1            1.5968349444        3.3115797458       -4.7505360788  CLST         267          1.0000000000
       801       267  TIP3  H2            1.6877027499        1.8571813422       -4.9933626985  CLST         267          1.0000000000
       802       268  TIP3  OH2           5.1618725348       -4.4812035964       -6.7740362351  CLST         268          1.0000000000
       803       268  TIP3  H1            5.0676304593       -4.1977340753       -7.7172355063  CLST         268          1.0000000000
       804       268  TIP3  H2            4.8014781955       -5.3892006542       -6.8092834582  CLST         268          1.0000000000
       805       269  TIP3  OH2           5.4187458626       10.7382038235       -0.0818682056  CLST         269          1.0000000000
       806       269  TIP3  H1            6.3966919269       10.6913974535       -0.4153112599  CLST         269          1.0000000000
       807       269  TIP3  H2            5.5727577596       11.6478674213        0.2633798531  CLST         269          1.0000000000
       808       270  TIP3  OH2           1.3161704212        9.2976502513       -8.1067836832  CLST         270          1.0000000000
       809       270  TIP3  H1            1.4193661148        8.5284911274       -8.7145332611  CLST         270          1.0000000000
       810       270  TIP3  H2            0.8204254022        8.8427588505       -7.3189015632  CLST         270          1.0000000000
       811       271  TIP3  OH2          -6.5445704195       -9.0279269376       -2.2449018006  CLST         271          1.0000000000
       812       271  TIP3  H1           -5.8734156002       -9.4343734053       -1.6828555630  CLST         271          1.0000000000
       813       271  TIP3  H2           -7.2109421638       -8.9093862065       -1.5169491498  CLST         271          1.0000000000
       814       272  TIP3  OH2           9.5849391170       -8.2072337952        5.5970055352  CLST         272          1.0000000000
       815       272  TIP3  H1            8.5947610146       -8.2705074981        5.6852544610  CLST         272          1.0000000000
       816       272  TIP3  H2            9.6559429490       -7.6912588517        4.7563008106  CLST         272          1.0000000000
       817       273  TIP3  OH2         -13.9425576347        9.4267196714        3.1114877106  CLST         273          1.0000000000
       818       273  TIP3  H1          -14.3002665277        9.8801121718        3.9581048462  CLST         273          1.0000000000
       819       273  TIP3  H2          -13.5101473571        8.7657868531        3.7211136455  CLST         273          1.0000000000
       820       274  TIP3  OH2           4.1781979869       12.8837926188       -3.9741409433  CLST         274          1.0000000000
       821       274  TIP3  H1            3.9355593046       12.2157850279       -3.2189652145  CLST         274          1.0000000000
       822       274  TIP3  H2            4.0905801838       13.7231467021       -3.6811742550  CLST         274          1.0000000000
       823       275  TIP3  OH2           8.8906365108      -11.2643410971        5.9283431236  CLST         275          1.0000000000
       824       275  TIP3  H1            9.6176814143      -10.6023782576        5.8650648438  CLST         275          1.0000000000
       825       275  TIP3  H2            9.3452910355      -12.1508839748        5.6544718109  CLST         275          1.0000000000
       826       276  TIP3  OH2          -0.1861535226       -5.9015786195        1.5300185750  CLST         276          1.0000000000
       827       276  TIP3  H1           -0.7422670557       -6.2912784649        0.7746926332  CLST         276          1.0000000000
       828       276  TIP3  H2           -0.8314717557       -5.2921049920        1.9915472705  CLST         276          1.0000000000
       829       277  TIP3  OH2           6.3639295799        6.4634488450       -7.0896154196  CLST         277          1.0000000000
       830       277  TIP3  H1            5.6621442159        5.7506683541       -7.5090956544  CLST         277          1.0000000000
       831       277  TIP3  H2            6.5755128485        7.0790734181       -7.7564781837  CLST         277          1.0000000000
       832       278  TIP3  OH2          -0.7902147128       -7.5910999485        3.4977044303  CLST         278          1.0000000000
       833       278  TIP3  H1           -0.4986639431       -6.9719455115        2.7524546338  CLST         278          1.0000000000
       834       278  TIP3  H2           -0.9410885220       -6.8588933746        4.1684203220  CLST         278          1.0000000000
       835       279  TIP3  OH2         -13.5940316987        6.4232813651        0.3647209378  CLST         279          1.0000000000
       836       279  TIP3  H1          -13.8804486994        5.5078558643        0.2427603801  CLST         279          1.0000000000
       837       279  TIP3  H2          -12.6506553075        6.3493359113        0.7167642453  CLST         279          1.0000000000
       838       280  TIP3  OH2          -3.2481960931      -10.1422063994        5.5278144381  CLST         280          1.0000000000
       839       280  TIP3  H1           -2.8604178455       -9.4091576558        6.0409670110  CLST         280          1.0000000000
       840       280  TIP3  H2           -3.8068052600       -9.5441849994        4.9581761164  CLST         280          1.0000000000
       841       281  TIP3  OH2           8.0481322709        7.7754606057      -10.7027933091  CLST         281          1.0000000000
       842       281  TIP3  H1            8.4630281569        8.6557610947      -10.6326006938  CLST         281          1.0000000000
       843       281  TIP3  H2            7.0691865875        8.0242911283      -10.6926532451  CLST         281          1.0000000000
       844       282  TIP3  OH2          -7.7540703609      -11.7819273643       10.0085513184  CLST         282          1.0000000000
       845       282  TIP3  H1           -8.6547868182      -11.7704141173        9.8193407704  CLST         282          1.0000000000
       846       282  TIP3  H2           -7.3966810345      -12.1816674035        9.1846718180  CLST         282          1.0000000000
       847       283  TIP3  OH2           4.4377353764        8.5951974400       -4.7483728025  CLST         283          1.0000000000
       848       283  TIP3  H1            4.7071191575        9.5269033708       -4.8317646069  CLST         283          1.0000000000
       849       283  TIP3  H2            4.0060561347        8.6429349384       -3.8176785511  CLST         283          1.0000000000
       850       284  TIP3  OH2          11.8515099385        8.3359830703       -1.3079318176  CLST         284          1.0000000000
       851       284  TIP3  H1           11.6993822976        7.6882215479       -2.0382700017  CLST         284          1.0000000000
       852       284  TIP3  H2           11.0740158248        8.9178506203       -1.3470013743  CLST         284          1.0000000000
       853       285  TIP3  OH2          -5.3994955708        2.0016161220        8.9391737072  CLST         285          1.0000000000
       854       285  TIP3  H1           -4.6440628006        1.7611474998        8.3217603333  CLST         285          1.0000000000
       855       285  TIP3  H2           -4.9334888199        2.7631252850        9.3612131219  CLST         285          1.0000000000
       856       286  TIP3  OH2           2.9690138008        5.6474109943       -0.5172234570  CLST         286          1.0000000000
       857       286  TIP3  H1            2.2732091098        5.7115946497        0.1789506461  CLST         286          1.0000000000
       858       286  TIP3  H2            3.7124534861        5.6778800998        0.1523404809  CLST         286          1.0000000000
       859       287  TIP3  OH2          -4.2433358986        9.2841465512       11.1862763453  CLST         287          1.0000000000
       860       287  TIP3  H1           -4.7205618864        9.9820622554       11.7618236018  CLST         287          1.0000000000
       861       287  TIP3  H2           -4.9703017581        8.8919416570       10.7103685792  CLST         287          1.0000000000
       862       288  TIP3  OH2           5.5608273953        3.3523855088       -9.4470497573  CLST         288          1.0000000000
       863       288  TIP3  H1            6.0687296245        2.8658379836      -10.4554997384  CLST         288          1.0000000000
       864       288  TIP3  H2            6.7971578233        4.2171231039      -10.4998378573  CLST         288          1.0000000000
       865       289  TIP3  OH2          -7.1996269918       -5.1519813264       -8.4361191281  CLST         289          1.0000000000
       866       289  TIP3  H1           -7.9020489601       -4.4830638650       -8.3227859254  CLST         289          1.0000000000
       867       289  TIP3  H2           -6.5785962306       -4.9197224568       -7.8079232538  CLST         289          1.0000000000
       868       290  TIP3  OH2           2.2911441658      -12.0413574503       11.2046735548  CLST         290          1.0000000000
       869       290  TIP3  H1            2.6230499238      -12.8988330302       11.1673642068  CLST         290          1.0000000000
       870       290  TIP3  H2            2.7971331836      -11.4819394186       11.8481345758  CLST         290          1.0000000000
       871       291  TIP3  OH2         -10.1749869197       -3.4865434437        2.9321179485  CLST         291          1.0000000000
       872       291  TIP3  H1          -11.0407596068       -3.6510292119        3.3563129309  CLST         291          1.0000000000
       873       291  TIP3  H2          -10.1176532839       -4.1264743843        2.2405187968  CLST         291          1.0000000000
       874       292  TIP3  OH2          12.0504844268        3.4238442200       -4.6636090169  CLST         292          1.0000000000
       875       292  TIP3  H1           11.0854651195        3.2969387083       -4.4589429601  CLST         292          1.0000000000
       876       292  TIP3  H2           11.9037012064        3.9539582167       -5.4902365016  CLST         292          1.0000000000
       877       293  TIP3  OH2           9.0809365036       10.5816388651       11.0184452318  CLST         293          1.0000000000
       878       293  TIP3  H1            8.8124965098       11.2864254301       11.5681141255  CLST         293          1.0000000000
       879       293  TIP3  H2            9.1012900935       11.1536377957       10.1353394639  CLST         293          1.0000000000
       880       294  TIP3  OH2           4.2153513034        4.4622542161       -2.5146538750  CLST         294          1.0000000000
       881       294  TIP3  H1            3.7585366415        4.9211228406       -1.7568669414  CLST         294          1.0000000000
       882       294  TIP3  H2            4.1844676750        5.1053649256       -3.2277026242  CLST         294          1.0000000000
       883       295  TIP3  OH2          -2.3148043351      -13.6326536470       -8.5274605018  CLST         295          1.0000000000
       884       295  TIP3  H1           -2.8686563016      -13.2085981510       -7.8405858582  CLST         295          1.0000000000
       885       295  TIP3  H2           -1.4544624369      -13.7036685551       -8.0845872145  CLST         295          1.0000000000
       886       296  TIP3  OH2          -1.6319502237       11.5688043896      -13.0169480692  CLST         296          1.0000000000
       887       296  TIP3  H1           -0.7046196806       11.3878441041      -13.2111020451  CLST         296          1.0000000000
       888       296  TIP3  H2           -1.6249335619       11.2796634055      -12.0687256891  CLST         296          1.0000000000
       889       297  TIP3  OH2           7.9804254302       -0.4555414939       11.4436227697  CLST         297          1.0000000000
       890       297  TIP3  H1            8.5356474964       -1.2483803730       11.2231194641  CLST         297          1.0000000000
       891       297  TIP3  H2            7.1736039502       -1.0119327723       11.6553679280  CLST         297          1.0000000000
       892       298  TIP3  OH2           0.9984251236       -1.1692622247       -7.5427558115  CLST         298          1.0000000000
       893       298  TIP3  H1            1.4720872102       -0.5675453311       -8.1871749003  CLST         298          1.0000000000
       894       298  TIP3  H2            0.7412233995       -1.9368518834       -8.1568764010  CLST         298          1.0000000000
       895       299  TIP3  OH2           2.9960248213       10.2107887748       12.7531425237  CLST         299          1.0000000000
       896       299  TIP3  H1            2.3988343624       10.8405945450       12.3562681523  CLST         299          1.0000000000
       897       299  TIP3  H2            2.2376486671        9.6453314676       12.8276972856  CLST         299          1.0000000000
       898       300  TIP3  OH2         -10.8369940627        5.1895800409       -3.6711028775  CLST         300          1.0000000000
       899       300  TIP3  H1          -10.5537517652        5.6628469522       -4.4928891253  CLST         300          1.0000000000
       900       300  TIP3  H2          -10.9399276211        6.0112986064       -3.1248454306  CLST         300          1.0000000000
       901       301  TIP3  OH2           9.6351973542       -8.2749387737       11.2568334140  CLST         301          1.0000000000
       902       301  TIP3  H1            9.4456252160       -8.0164324538       12.2315345743  CLST         301          1.0000000000
       903       301  TIP3  H2            9.5245317419       -9.2418064351       11.3806760362  CLST         301          1.0000000000
       904       302  TIP3  OH2           7.7493089520       12.8413838567        5.5932013867  CLST         302          1.0000000000
       905       302  TIP3  H1            7.5703061064       13.3720646129        4.7781408593  CLST         302          1.0000000000
       906       302  TIP3  H2            6.9160762252       12.3365906893        5.4847520063  CLST         302          1.0000000000
       907       303  TIP3  OH2         -10.7525588427        1.3328313109       -2.1320999040  CLST         303          1.0000000000
       908       303  TIP3  H1           -9.7919304208        1.2828690844       -1.9151948857  CLST         303          1.0000000000
       909       303  TIP3  H2          -10.7797265566        0.6042057443       -2.7725643354  CLST         303          1.0000000000
       910       304  TIP3  OH2          -8.0079459907        1.3327775426      -14.8642678577  CLST         304          1.0000000000
       911       304  TIP3  H1           -7.5246283322        0.5155718719      -14.6777430312  CLST         304          1.0000000000
       912       304  TIP3  H2           -7.5623254847        2.0025623597      -15.3698541061  CLST         304          1.0000000000
       913       305  TIP3  OH2           3.5443917434       -3.9367579677       13.9200351257  CLST         305          1.0000000000
       914       305  TIP3  H1            4.3371308358       -4.3028633219       13.6055584161  CLST         305          1.0000000000
       915       305  TIP3  H2            3.3750880241       -3.0713364024       13.5251283662  CLST         305          1.0000000000
       916       306  TIP3  OH2           8.8539311630      -12.0565159010      -11.4171911689  CLST         306          1.0000000000
       917       306  TIP3  H1            9.5549658899      -11.7502961811      -12.1775040222  CLST         306          1.0000000000
       918       306  TIP3  H2            9.2861797372      -12.5583091160      -10.8716294870  CLST         306          1.0000000000
       919       307  TIP3  OH2           9.2383541185        7.9087861587       -7.7297565609  CLST         307          1.0000000000
       920       307  TIP3  H1            8.4954187044        8.5301352432       -7.9770554675  CLST         307          1.0000000000
       921       307  TIP3  H2            9.4222830247        8.1889486952       -6.8323236667  CLST         307          1.0000000000
       922       308  TIP3  OH2         -10.9179104548       -4.7599943009        8.7568363894  CLST         308          1.0000000000
       923       308  TIP3  H1          -10.9243556075       -5.6569760228        9.2219407353  CLST         308          1.0000000000
       924       308  TIP3  H2           -9.9757373841       -4.5209673601        8.9484105983  CLST         308          1.0000000000
       925       309  TIP3  OH2          -1.9317151272       -0.5628763179        5.6370405496  CLST         309          1.0000000000
       926       309  TIP3  H1           -2.7348406184       -0.8300016238        5.0847090183  CLST         309          1.0000000000
       927       309  TIP3  H2           -1.8311308481       -1.4679285898        6.0859681527  CLST         309          1.0000000000
       928       310  TIP3  OH2          -4.9098806350       -0.6130786409        7.3552715016  CLST         310          1.0000000000
       929       310  TIP3  H1           -4.2544498828        0.1325490074        7.2610733459  CLST         310          1.0000000000
       930       310  TIP3  H2           -4.9128500391       -0.7796323285        8.3405139371  CLST         310          1.0000000000
       931       311  TIP3  OH2          -7.4083353901        8.5033783804      -12.2426973394  CLST         311          1.0000000000
       932       311  TIP3  H1           -6.7364017295        7.8424088485      -12.5806580541  CLST         311          1.0000000000
       933       311  TIP3  H2           -7.4785456030        8.0999024185      -11.3885349864  CLST         311          1.0000000000
       934       312  TIP3  OH2           6.5350814352       -0.7842880734       -6.1549413003  CLST         312          1.0000000000
       935       312  TIP3  H1            6.2980284638       -0.0330133638       -5.5922467525  CLST         312          1.0000000000
       936       312  TIP3  H2            6.5527291957       -1.4690447420       -5.4464673159  CLST         312          1.0000000000
       937       313  TIP3  OH2          -9.0836454884      -10.6425182306        7.1360031016  CLST         313          1.0000000000
       938       313  TIP3  H1           -8.3249221573      -10.0699558785        7.0478406454  CLST         313          1.0000000000
       939       313  TIP3  H2           -9.3456372341      -10.6198704628        6.1989788406  CLST         313          1.0000000000
       940       314  TIP3  OH2          -1.2490589627      -12.2825584248      -10.7292519600  CLST         314          1.0000000000
       941       314  TIP3  H1           -1.2666822772      -11.4179451894      -10.2242045114  CLST         314          1.0000000000
       942       314  TIP3  H2           -1.7898296649      -12.7997400698      -10.1180766309  CLST         314          1.0000000000
       943       315  TIP3  OH2          -1.3334574471       -0.6290334051       -6.3806028524  CLST         315          1.0000000000
       944       315  TIP3  H1           -0.4676093922       -0.9732331116       -6.6784571754  CLST         315          1.0000000000
       945       315  TIP3  H2           -1.1237505571       -0.1308032270       -5.5241119871  CLST         315          1.0000000000
       946       316  TIP3  OH2         -13.3721828738       -3.8859461052       -5.5682897514  CLST         316          1.0000000000
       947       316  TIP3  H1          -12.6952019039       -4.2059841250       -6.1927247770  CLST         316          1.0000000000
       948       316  TIP3  H2          -13.0025722955       -2.9561090385       -5.5051825867  CLST         316          1.0000000000
       949       317  TIP3  OH2          -6.1836803754        0.0044847055       -3.8240345379  CLST         317          1.0000000000
       950       317  TIP3  H1           -5.3214399701       -0.0426615496       -3.3385437503  CLST         317          1.0000000000
       951       317  TIP3  H2           -6.7376524369        0.1514410870       -3.0198373237  CLST         317          1.0000000000
       952       318  TIP3  OH2          -3.8437844952       -9.6941662601       -9.5137589480  CLST         318          1.0000000000
       953       318  TIP3  H1           -3.8812330859       -9.8903831882       -8.5134908439  CLST         318          1.0000000000
       954       318  TIP3  H2           -2.8349643158       -9.5724137999       -9.4271182469  CLST         318          1.0000000000
       955       319  TIP3  OH2           5.7303115579       10.7527347761        8.7655716483  CLST         319          1.0000000000
       956       319  TIP3  H1            6.4807523967       10.6019442890        8.1258724130  CLST         319          1.0000000000
       957       319  TIP3  H2            6.0759447496       11.2160438114        9.4951357817  CLST         319          1.0000000000
       958       320  TIP3  OH2         -10.6669111295        1.1122250152      -14.6198324672  CLST         320          1.0000000000
       959       320  TIP3  H1           -9.6876490433        1.1380577400      -14.8206143754  CLST         320          1.0000000000
       960       320  TIP3  H2          -10.7088997845        0.2070996260      -14.3441960881  CLST         320          1.0000000000
       961       321  TIP3  OH2          -9.8280589058       10.2733209608       -9.7789935959  CLST         321          1.0000000000
       962       321  TIP3  H1          -10.6662166160       10.0480027195       -9.4712703618  CLST         321          1.0000000000
       963       321  TIP3  H2           -9.8460435716       10.2124792505      -10.8283042015  CLST         321          1.0000000000
       964       322  TIP3  OH2         -12.4695139215       -1.7417396997       -2.4156594537  CLST         322          1.0000000000
       965       322  TIP3  H1          -12.2184222240       -1.1767106737       -3.1810810635  CLST         322          1.0000000000
       966       322  TIP3  H2          -11.5507787862       -1.8187643504       -1.9893094811  CLST         322          1.0000000000
       967       323  TIP3  OH2          -1.0563479281        3.9479378934        4.3658051686  CLST         323          1.0000000000
       968       323  TIP3  H1           -0.4389884992        3.1938326991        4.3900998491  CLST         323          1.0000000000
       969       323  TIP3  H2           -1.0944294230        4.0838408869        3.3796156621  CLST         323          1.0000000000
       970       324  TIP3  OH2         -10.9463655966        6.2094934410        1.5098130571  CLST         324          1.0000000000
       971       324  TIP3  H1          -11.1637657603        5.5927871885        2.2385611322  CLST         324          1.0000000000
       972       324  TIP3  H2          -10.1638431626        6.6839223915        1.9600483402  CLST         324          1.0000000000
       973       325  TIP3  OH2          -4.5519218907        0.7171727737        3.6415503111  CLST         325          1.0000000000
       974       325  TIP3  H1           -5.5661543085        0.8900569013        3.6675053453  CLST         325          1.0000000000
       975       325  TIP3  H2           -4.3058358012        1.5411124403        4.0304972077  CLST         325          1.0000000000
       976       326  TIP3  OH2           8.8914171171        8.7509590638       -2.8816892264  CLST         326          1.0000000000
       977       326  TIP3  H1            8.7144848210        8.1555079132       -2.1423464111  CLST         326          1.0000000000
       978       326  TIP3  H2            8.0782262899        8.5962227848       -3.4545987953  CLST         326          1.0000000000
       979       327  TIP3  OH2          10.4082650907       -3.6244358759      -13.2194190717  CLST         327          1.0000000000
       980       327  TIP3  H1           10.2467757192       -3.5848298109      -14.0599339831  CLST         327          1.0000000000
       981       327  TIP3  H2           10.2057663777       -2.8797098204      -12.6173489393  CLST         327          1.0000000000
       982       328  TIP3  OH2           2.1593443304        7.0349522588       -9.8616465382  CLST         328          1.0000000000
       983       328  TIP3  H1            2.2186309283        6.2549098758       -9.2150309361  CLST         328          1.0000000000
       984       328  TIP3  H2            3.1367297987        7.1437131174       -9.7658361603  CLST         328          1.0000000000
       985       329  TIP3  OH2           1.3876841644      -11.5903964264       -2.3408613397  CLST         329          1.0000000000
       986       329  TIP3  H1            1.5372211652      -10.6161400911       -2.5821653921  CLST         329          1.0000000000
       987       329  TIP3  H2            2.2656704994      -11.6842252487       -1.8767242288  CLST         329          1.0000000000
       988       330  TIP3  OH2          -9.3703604638       -0.9314896257        3.2673153618  CLST         330          1.0000000000
       989       330  TIP3  H1           -9.5415068268       -1.8912756948        3.2624282802  CLST         330          1.0000000000
       990       330  TIP3  H2          -10.1559055263       -0.6287538489        3.7117125433  CLST         330          1.0000000000
       991       331  TIP3  OH2          12.2971496794        9.8000673102       -9.0346292188  CLST         331          1.0000000000
       992       331  TIP3  H1           13.0192832286        9.6361216550       -9.6044289608  CLST         331          1.0000000000
       993       331  TIP3  H2           11.9681692719        8.8201706065       -8.9634696013  CLST         331          1.0000000000
       994       332  TIP3  OH2          11.3873632276       -1.3297255590       -4.4167603102  CLST         332          1.0000000000
       995       332  TIP3  H1           12.2856401244       -1.5085205694       -4.8863090892  CLST         332          1.0000000000
       996       332  TIP3  H2           11.7267024184       -0.6879816112       -3.8206382873  CLST         332          1.0000000000
       997       333  TIP3  OH2          10.4899647843      -14.3135957634        8.0181073700  CLST         333          1.0000000000
       998       333  TIP3  H1            9.6093377732      -13.8545910397        8.1694666846  CLST         333          1.0000000000
       999       333  TIP3  H2           10.6476488905      -14.1982800494        7.1113187828  CLST         333          1.0000000000
      1000       334  TIP3  OH2         -10.6669333829       -9.7499615293        9.1565778231  CLST         334          1.0000000000
      1001       334  TIP3  H1          -11.4753188988      -10.0803705398        8.6881904667  CLST         334          1.0000000000
      1002       334  TIP3  H2          -10.0835005898      -10.0488248013        8.4007493550  CLST         334          1.0000000000
      1003       335  TIP3  OH2           6.8982254161       -9.9045565785        1.3945413963  CLST         335          1.0000000000
      1004       335  TIP3  H1            6.7226527883       -9.7831669279        2.3156798143  CLST         335          1.0000000000
      1005       335  TIP3  H2            5.9927305271      -10.2171629026        1.1165558370  CLST         335          1.0000000000
      1006       336  TIP3  OH2          -9.2761783795       -3.7614396241       -3.4437236752  CLST         336          1.0000000000
      1007       336  TIP3  H1           -9.8326360923       -4.5210469250       -3.6814848690  CLST         336          1.0000000000
      1008       336  TIP3  H2           -9.4079131929       -3.3302409595       -4.3195157098  CLST         336          1.0000000000
      1009       337  TIP3  OH2          -1.5181947031       -4.8767257508        8.0991490468  CLST         337          1.0000000000
      1010       337  TIP3  H1           -1.3843536471       -4.4291533848        8.9748070393  CLST         337          1.0000000000
      1011       337  TIP3  H2           -2.1273900770       -4.1535612135        7.8203223844  CLST         337          1.0000000000
      1012       338  TIP3  OH2          -0.4254065058        2.7142967870       10.8009008371  CLST         338          1.0000000000
      1013       338  TIP3  H1           -0.5775078435        2.3106893950        9.8977381941  CLST         338          1.0000000000
      1014       338  TIP3  H2            0.0688483865        2.0824345521       11.2648853126  CLST         338          1.0000000000
      1015       339  TIP3  OH2           7.9903097925        7.9198908929        2.7829132834  CLST         339          1.0000000000
      1016       339  TIP3  H1            7.5990638402        8.5254194331        3.4396207010  CLST         339          1.0000000000
      1017       339  TIP3  H2            7.3358447931        7.6720109095        2.0895004252  CLST         339          1.0000000000
      1018       340  TIP3  OH2          -4.6563474076      -11.7258799168      -11.3975511030  CLST         340          1.0000000000
      1019       340  TIP3  H1           -4.3714209574      -11.0535563368      -10.7301147373  CLST         340          1.0000000000
      1020       340  TIP3  H2           -4.6853526841      -12.5060069236      -10.8288396577  CLST         340          1.0000000000
      1021       341  TIP3  OH2          -6.6759972536        4.6163039197        9.3713225952  CLST         341          1.0000000000
      1022       341  TIP3  H1           -5.7647335656        4.5189120005        9.7734419808  CLST         341          1.0000000000
      1023       341  TIP3  H2           -6.9122411519        3.6795833738        9.3047234352  CLST         341          1.0000000000
      1024       342  TIP3  OH2          -4.5423571076      -10.9221479136       13.7780591361  CLST         342          1.0000000000
      1025       342  TIP3  H1           -5.3248224181      -10.8277268475       13.0646870533  CLST         342          1.0000000000
      1026       342  TIP3  H2           -4.6439420992      -10.7752039617       14.5726824965  CLST         342          1.0000000000
      1027       343  TIP3  OH2           1.3135553654       -9.0322350959       -9.9438637192  CLST         343          1.0000000000
      1028       343  TIP3  H1            1.4772181973       -8.1409562504      -10.3465182451  CLST         343          1.0000000000
      1029       343  TIP3  H2            1.3379705824       -9.6233294864      -10.7099760750  CLST         343          1.0000000000
      1030       344  TIP3  OH2           5.5038546157       -3.8984487462        6.3680426488  CLST         344          1.0000000000
      1031       344  TIP3  H1            4.9170908262       -4.4551267024        6.9212250024  CLST         344          1.0000000000
      1032       344  TIP3  H2            5.8931380781       -4.6112759224        5.8039360429  CLST         344          1.0000000000
      1033       345  TIP3  OH2          13.0108848868        6.9984008191        8.9053697351  CLST         345          1.0000000000
      1034       345  TIP3  H1           12.1331862320        6.5868239239        8.7326678644  CLST         345          1.0000000000
      1035       345  TIP3  H2           12.6223305525        7.4019988725        9.8297501662  CLST         345          1.0000000000
      1036       346  TIP3  OH2           9.4990258486        9.3347127646        1.1063441489  CLST         346          1.0000000000
      1037       346  TIP3  H1            9.9245607328        9.9994726201        1.7155063768  CLST         346          1.0000000000
      1038       346  TIP3  H2            8.9315371302        8.8429111729        1.7258470588  CLST         346          1.0000000000
      1039       347  TIP3  OH2          -4.9940934870        2.9215347410       -9.6661419934  CLST         347          1.0000000000
      1040       347  TIP3  H1           -5.7347757529        3.0077623413       -9.0101517634  CLST         347          1.0000000000
      1041       347  TIP3  H2           -4.2875660043        2.7827486077       -9.0153442406  CLST         347          1.0000000000
      1042       348  TIP3  OH2          -1.3407376812        6.1829420240        5.8318439776  CLST         348          1.0000000000
      1043       348  TIP3  H1           -1.4789143539        5.3460429276        5.3414766638  CLST         348          1.0000000000
      1044       348  TIP3  H2           -0.6270207391        6.4697603233        5.1895161139  CLST         348          1.0000000000
      1045       349  TIP3  OH2          -4.1780408985        5.0752027079       -2.6027448342  CLST         349          1.0000000000
      1046       349  TIP3  H1           -3.9314666686        4.4765473335       -3.3728554583  CLST         349          1.0000000000
      1047       349  TIP3  H2           -3.4639276816        5.7137624298       -2.7411071093  CLST         349          1.0000000000
      1048       350  TIP3  OH2          -2.6333802375        8.9140343012        5.1798777158  CLST         350          1.0000000000
      1049       350  TIP3  H1           -3.0604685527        8.5559444526        4.4035171898  CLST         350          1.0000000000
      1050       350  TIP3  H2           -2.3610222958        8.0337455329        5.5403075853  CLST         350          1.0000000000
      1051       351  TIP3  OH2           4.8553565499       -7.5618923042       -7.6890994784  CLST         351          1.0000000000
      1052       351  TIP3  H1            4.2370522153       -8.2649130963       -7.5410523289  CLST         351          1.0000000000
      1053       351  TIP3  H2            4.7917205046       -7.4112127217       -8.6869478509  CLST         351          1.0000000000
      1054       352  TIP3  OH2         -10.4046691595      -11.2190825611        1.7881675047  CLST         352          1.0000000000
      1055       352  TIP3  H1           -9.4766209327      -10.9043958986        1.6844420376  CLST         352          1.0000000000
      1056       352  TIP3  H2          -10.9600176324      -10.4963969670        1.3319829886  CLST         352          1.0000000000
      1057       353  TIP3  OH2          10.8785136045       -8.1610323072       -8.6564716600  CLST         353          1.0000000000
      1058       353  TIP3  H1            9.9799067722       -8.5237386009       -8.7245499106  CLST         353          1.0000000000
      1059       353  TIP3  H2           11.4541627184       -8.5183269253       -8.0290996370  CLST         353          1.0000000000
      1060       354  TIP3  OH2           6.8991538500      -10.6945196893        4.1346980866  CLST         354          1.0000000000
      1061       354  TIP3  H1            7.6257548243      -10.9602400126        4.7727308432  CLST         354          1.0000000000
      1062       354  TIP3  H2            6.6298111508       -9.9312098350        4.7382923674  CLST         354          1.0000000000
      1063       355  TIP3  OH2          -7.2126194829        8.9388898501       -8.8350040127  CLST         355          1.0000000000
      1064       355  TIP3  H1           -6.8146577838        9.7874450623       -8.5053292332  CLST         355          1.0000000000
      1065       355  TIP3  H2           -8.1339237024        9.2548234443       -8.8583736744  CLST         355          1.0000000000
      1066       356  TIP3  OH2          12.4870415555        0.9146181354       -1.9397336511  CLST         356          1.0000000000
      1067       356  TIP3  H1           11.4719779181        0.7714377506       -2.0190817580  CLST         356          1.0000000000
      1068       356  TIP3  H2           12.6774882918        0.9247806535       -1.0154490636  CLST         356          1.0000000000
      1069       357  TIP3  OH2          -0.6955557948       -0.5550059679       -1.8668054737  CLST         357          1.0000000000
      1070       357  TIP3  H1            0.2212594477       -0.9568755215       -1.9082580657  CLST         357          1.0000000000
      1071       357  TIP3  H2           -0.7134247390       -0.3708353691       -2.8561008561  CLST         357          1.0000000000
      1072       358  TIP3  OH2          -5.5546494624        6.9800416863       -7.6233960870  CLST         358          1.0000000000
      1073       358  TIP3  H1           -6.0120584739        7.6074144050       -8.2143950602  CLST         358          1.0000000000
      1074       358  TIP3  H2           -6.4169133104        6.5901054946       -7.2120506334  CLST         358          1.0000000000
      1075       359  TIP3  OH2          -5.1239707811       12.1645642955        6.0268122110  CLST         359          1.0000000000
      1076       359  TIP3  H1           -5.4941755476       12.1509797603        5.1342218392  CLST         359          1.0000000000
      1077       359  TIP3  H2           -4.1558341748       12.2288556373        5.8404497541  CLST         359          1.0000000000
      1078       360  TIP3  OH2          -6.9797888048        5.8471484954       -3.3590913985  CLST         360          1.0000000000
      1079       360  TIP3  H1           -7.1222333047        6.5279630796       -2.6857080271  CLST         360          1.0000000000
      1080       360  TIP3  H2           -6.0254565597        5.6323712075       -3.1383440514  CLST         360          1.0000000000
      1081       361  TIP3  OH2          -1.6055604258       -1.0178470764       10.0975716621  CLST         361          1.0000000000
      1082       361  TIP3  H1           -1.5852697817       -0.3994836970       10.8301244872  CLST         361          1.0000000000
      1083       361  TIP3  H2           -1.7532188116       -1.8916778343       10.6345312687  CLST         361          1.0000000000
      1084       362  TIP3  OH2         -10.4933338219        2.7677680056        0.6447191094  CLST         362          1.0000000000
      1085       362  TIP3  H1          -10.2837276960        3.3038595144       -0.1605669766  CLST         362          1.0000000000
      1086       362  TIP3  H2          -10.8310693686        1.9748349049        0.1796504580  CLST         362          1.0000000000
      1087       363  TIP3  OH2          10.6082808801        2.5076453275       10.3178557994  CLST         363          1.0000000000
      1088       363  TIP3  H1           10.9118735753        1.5661623833       10.1381803970  CLST         363          1.0000000000
      1089       363  TIP3  H2           11.0349747215        3.0096106441       10.9240058182  CLST         363          1.0000000000
      1090       364  TIP3  OH2           7.5775686715       -5.6900846276       -6.3039243734  CLST         364          1.0000000000
      1091       364  TIP3  H1            6.7784963201       -5.1939145389       -6.5668145932  CLST         364          1.0000000000
      1092       364  TIP3  H2            8.0503323982       -5.7603072129       -7.1917552952  CLST         364          1.0000000000
      1093       365  TIP3  OH2          -6.1267614549       -6.8004509357        2.6042440179  CLST         365          1.0000000000
      1094       365  TIP3  H1           -6.5842355623       -5.9845070418        2.8637720446  CLST         365          1.0000000000
      1095       365  TIP3  H2           -6.8441107181       -7.4758704591        2.8241778344  CLST         365          1.0000000000
      1096       366  TIP3  OH2           1.8516722803       -1.3050543199       -2.9245060754  CLST         366          1.0000000000
      1097       366  TIP3  H1            2.8090799961       -1.5224396207       -2.7196242943  CLST         366          1.0000000000
      1098       366  TIP3  H2            2.0658131181       -1.0593783187       -3.8572362830  CLST         366          1.0000000000
      1099       367  TIP3  OH2          -5.2590571621       11.6642696142       12.3821464108  CLST         367          1.0000000000
      1100       367  TIP3  H1           -6.0046092651       12.0095700714       11.7822901818  CLST         367          1.0000000000
      1101       367  TIP3  H2           -5.2526541900       12.1743557552       13.1241287298  CLST         367          1.0000000000
      1102       368  TIP3  OH2          -2.6843964490        6.5372231348        1.1389682120  CLST         368          1.0000000000
      1103       368  TIP3  H1           -2.7975343791        7.3704843031        0.5255760214  CLST         368          1.0000000000
      1104       368  TIP3  H2           -3.1477511358        7.0868329899        1.8729738383  CLST         368          1.0000000000
      1105       369  TIP3  OH2         -11.6684650738       -1.7105171433       -6.3654040011  CLST         369          1.0000000000
      1106       369  TIP3  H1          -10.7938353496       -2.1473799609       -6.5099984521  CLST         369          1.0000000000
      1107       369  TIP3  H2          -11.9498060850       -1.9134938490       -7.3129976320  CLST         369          1.0000000000
      1108       370  TIP3  OH2         -12.0752556843        5.6537965301      -11.5623878617  CLST         370          1.0000000000
      1109       370  TIP3  H1          -12.1849110479        4.9702716650      -12.2872718601  CLST         370          1.0000000000
      1110       370  TIP3  H2          -12.8456429875        5.9063415211      -11.3521445276  CLST         370          1.0000000000
      1111       371  TIP3  OH2           2.0499950840        7.8059959159        5.8005946003  CLST         371          1.0000000000
      1112       371  TIP3  H1            2.0158331346        7.6238387768        6.7793975897  CLST         371          1.0000000000
      1113       371  TIP3  H2            2.9678104543        7.8379436582        5.6104839613  CLST         371          1.0000000000
      1114       372  TIP3  OH2           8.1471607070       -7.4849254811        9.1263756781  CLST         372          1.0000000000
      1115       372  TIP3  H1            8.9764330767       -7.5512247386        8.6122447247  CLST         372          1.0000000000
      1116       372  TIP3  H2            8.6347761391       -7.6859717159        9.9914895038  CLST         372          1.0000000000
      1117       373  TIP3  OH2          11.1036650001       -0.3660608560        6.6011786068  CLST         373          1.0000000000
      1118       373  TIP3  H1           11.2507415201        0.4622151286        6.0931330119  CLST         373          1.0000000000
      1119       373  TIP3  H2           10.4099037034       -0.6149061652        5.9921779963  CLST         373          1.0000000000
      1120       374  TIP3  OH2          -9.4151218390        4.8313571714      -12.2742769065  CLST         374          1.0000000000
      1121       374  TIP3  H1           -9.7994772966        5.3536042353      -12.9659574844  CLST         374          1.0000000000
      1122       374  TIP3  H2          -10.0000335506        5.1010120976      -11.5654131973  CLST         374          1.0000000000
      1123       375  TIP3  OH2           9.8311203578       -5.4089295762       -2.8323456327  CLST         375          1.0000000000
      1124       375  TIP3  H1           10.2622446632       -5.1338572269       -3.6889849976  CLST         375          1.0000000000
      1125       375  TIP3  H2           10.2155292180       -6.3260752102       -2.7874310772  CLST         375          1.0000000000
      1126       376  TIP3  OH2          -2.2060471042      -11.1229242368       11.9819749392  CLST         376          1.0000000000
      1127       376  TIP3  H1           -2.8660916344      -10.8923685110       12.7324586222  CLST         376          1.0000000000
      1128       376  TIP3  H2           -2.8726734236      -11.5281271388       11.3965167691  CLST         376          1.0000000000
      1129       377  TIP3  OH2         -10.0604464070       12.8804285218       10.4586962415  CLST         377          1.0000000000
      1130       377  TIP3  H1           -9.1677812413       12.5414664604       10.7324393811  CLST         377          1.0000000000
      1131       377  TIP3  H2           -9.8410254564       12.9627705829        9.4731883745  CLST         377          1.0000000000
      1132       378  TIP3  OH2           2.1178356750       -7.8964589532        7.4754470207  CLST         378          1.0000000000
      1133       378  TIP3  H1            2.2824816828       -6.9786240503        7.3979346535  CLST         378          1.0000000000
      1134       378  TIP3  H2            1.7189894261       -8.0486368977        8.3427276298  CLST         378          1.0000000000
      1135       379  TIP3  OH2          -9.3978347619        9.3861254817       -1.1946278101  CLST         379          1.0000000000
      1136       379  TIP3  H1           -8.7691973588        9.5988257738       -0.4790360709  CLST         379          1.0000000000
      1137       379  TIP3  H2           -9.7272161736       10.2964662672       -1.4773408673  CLST         379          1.0000000000
      1138       380  TIP3  OH2           3.0582028534       -4.2141127794      -11.3153863516  CLST         380          1.0000000000
      1139       380  TIP3  H1            2.5586566829       -3.5274377346      -11.8810127373  CLST         380          1.0000000000
      1140       380  TIP3  H2            3.2286812958       -4.8003730940      -12.0832614577  CLST         380          1.0000000000
      1141       381  TIP3  OH2          10.1001812881        4.2919764431        3.3707086823  CLST         381          1.0000000000
      1142       381  TIP3  H1            9.2912372672        4.6127706533        3.7536810024  CLST         381          1.0000000000
      1143       381  TIP3  H2           10.7096067947        5.0622955926        3.5755183563  CLST         381          1.0000000000
      1144       382  TIP3  OH2           1.9034819048       -5.4347833782        5.7219218148  CLST         382          1.0000000000
      1145       382  TIP3  H1            2.2914174076       -4.9765722115        6.5160269174  CLST         382          1.0000000000
      1146       382  TIP3  H2            2.7068832280       -5.8848466174        5.3494389437  CLST         382          1.0000000000
      1147       383  TIP3  OH2          10.1027292792        8.9575326582        4.8183522443  CLST         383          1.0000000000
      1148       383  TIP3  H1            9.2090045295        9.3187433265        4.5940693648  CLST         383          1.0000000000
      1149       383  TIP3  H2           10.5425415788        9.8431021810        4.9479986368  CLST         383          1.0000000000
      1150       384  TIP3  OH2          -3.2300163341       -1.7315437971       -8.3763928072  CLST         384          1.0000000000
      1151       384  TIP3  H1           -2.8440900233       -2.6948482382       -8.3492413030  CLST         384          1.0000000000
      1152       384  TIP3  H2           -2.6868603314       -1.4229370845       -7.5956235679  CLST         384          1.0000000000
      1153       385  TIP3  OH2           3.5715016038      -11.7641471708       -0.8235106541  CLST         385          1.0000000000
      1154       385  TIP3  H1            4.4691794203      -12.2685661061       -0.7487095096  CLST         385          1.0000000000
      1155       385  TIP3  H2            3.7630319109      -11.0944758095       -0.1266026934  CLST         385          1.0000000000
      1156       386  TIP3  OH2          -4.2640734853        9.5345510123       -6.2990467564  CLST         386          1.0000000000
      1157       386  TIP3  H1           -4.7765488182        8.8014531004       -6.6516761343  CLST         386          1.0000000000
      1158       386  TIP3  H2           -4.0968972652        9.8742324883       -7.1864540432  CLST         386          1.0000000000
      1159       387  TIP3  OH2          -9.8230223299       10.7117281156        2.6417568384  CLST         387          1.0000000000
      1160       387  TIP3  H1          -10.6762277838       10.5163055982        2.1176390001  CLST         387          1.0000000000
      1161       387  TIP3  H2           -9.1856760470       10.4229737665        1.9583047576  CLST         387          1.0000000000
      1162       388  TIP3  OH2          -1.7137421772      -12.3694787571        5.8656917401  CLST         388          1.0000000000
      1163       388  TIP3  H1           -2.0947205814      -11.4912190136        5.5703244666  CLST         388          1.0000000000
      1164       388  TIP3  H2           -1.8487524565      -12.2450433891        6.8271317294  CLST         388          1.0000000000
      1165       389  TIP3  OH2          -8.2266105161        3.4256250757       -3.5351650629  CLST         389          1.0000000000
      1166       389  TIP3  H1           -7.8607561979        4.3084754782       -3.2179824562  CLST         389          1.0000000000
      1167       389  TIP3  H2           -9.1090238605        3.7534791679       -3.8292447382  CLST         389          1.0000000000
      1168       390  TIP3  OH2          -5.9201289683       -4.0975451141        4.6190818294  CLST         390          1.0000000000
      1169       390  TIP3  H1           -5.4447103781       -3.1632704485        4.5967728491  CLST         390          1.0000000000
      1170       390  TIP3  H2           -5.3389693148       -4.5043556418        4.0058973875  CLST         390          1.0000000000
      1171       391  TIP3  OH2          -8.7583778216       -8.9690706040       -6.1423857177  CLST         391          1.0000000000
      1172       391  TIP3  H1           -9.2143241286       -9.5607213025       -6.7556812625  CLST         391          1.0000000000
      1173       391  TIP3  H2           -7.9863257484       -9.5134693091       -5.7996731817  CLST         391          1.0000000000
      1174       392  TIP3  OH2           1.0323189275       -1.9825309121       10.1481667358  CLST         392          1.0000000000
      1175       392  TIP3  H1            0.4209843936       -2.7555220038       10.3312627697  CLST         392          1.0000000000
      1176       392  TIP3  H2            0.2698937587       -1.3467013741        9.9927027149  CLST         392          1.0000000000
      1177       393  TIP3  OH2          10.8363240997      -12.2158608492       -0.6320980344  CLST         393          1.0000000000
      1178       393  TIP3  H1           11.4143564567      -11.3550182713       -0.7652032549  CLST         393          1.0000000000
      1179       393  TIP3  H2           11.2820837764      -12.8329579566       -1.1332574450  CLST         393          1.0000000000
      1180       394  TIP3  OH2           0.4781895295       11.7253174546       -8.5168466014  CLST         394          1.0000000000
      1181       394  TIP3  H1            1.2606649624       12.0916124617       -8.0360858548  CLST         394          1.0000000000
      1182       394  TIP3  H2            0.6724144329       10.7694252103       -8.1890886171  CLST         394          1.0000000000
      1183       395  TIP3  OH2           6.8190750839        7.5362028403       -4.5101341527  CLST         395          1.0000000000
      1184       395  TIP3  H1            5.9175456715        7.9266960918       -4.5152201917  CLST         395          1.0000000000
      1185       395  TIP3  H2            6.7053639443        7.1355550616       -5.4492680968  CLST         395          1.0000000000
      1186       396  TIP3  OH2          -1.1204284323       -9.9568075251       -8.9665359596  CLST         396          1.0000000000
      1187       396  TIP3  H1           -1.1648120073       -9.7978109238       -7.9302291600  CLST         396          1.0000000000
      1188       396  TIP3  H2           -0.2626124719       -9.5590482989       -9.1989649987  CLST         396          1.0000000000
      1189       397  TIP3  OH2          11.4498558423        7.3036060169       -9.0191742605  CLST         397          1.0000000000
      1190       397  TIP3  H1           12.0016186225        6.7611232679       -8.4216450212  CLST         397          1.0000000000
      1191       397  TIP3  H2           10.6088920313        7.3168820824       -8.4641924647  CLST         397          1.0000000000
      1192       398  TIP3  OH2          10.6694340477        7.8125271197       -4.9018816253  CLST         398          1.0000000000
      1193       398  TIP3  H1           10.0644296327        8.1027447796       -4.1421008775  CLST         398          1.0000000000
      1194       398  TIP3  H2           11.3262285781        7.3716850283       -4.3038993528  CLST         398          1.0000000000
      1195       399  TIP3  OH2           1.7799415593       11.1248850571        4.8309156991  CLST         399          1.0000000000
      1196       399  TIP3  H1            0.8811402073       10.8527156669        5.1066477119  CLST         399          1.0000000000
      1197       399  TIP3  H2            2.2405006729       10.9493690259        5.6863590129  CLST         399          1.0000000000
      1198       400  TIP3  OH2           3.9874752180       -3.0847693010       -4.9522660886  CLST         400          1.0000000000
      1199       400  TIP3  H1            4.7035947953       -2.6619240813       -4.4106900361  CLST         400          1.0000000000
      1200       400  TIP3  H2            4.5498142533       -3.4563330041       -5.6870383129  CLST         400          1.0000000000
      1201       401  TIP3  OH2         -14.7081606105       10.0105920504        5.4407975762  CLST         401          1.0000000000
      1202       401  TIP3  H1          -14.1506815196       10.1914853717        6.2642431108  CLST         401          1.0000000000
      1203       401  TIP3  H2          -15.5817906372        9.8476799692        5.8681376302  CLST         401          1.0000000000
      1204       402  TIP3  OH2           1.8714431146       -1.6389744304       12.8647764028  CLST         402          1.0000000000
      1205       402  TIP3  H1            1.2448269452       -2.3805428549       12.8928570721  CLST         402          1.0000000000
      1206       402  TIP3  H2            1.9829358993       -1.6129943666       11.8914484250  CLST         402          1.0000000000
      1207       403  TIP3  OH2          -1.9179311874       -6.9394691587       -0.8134388705  CLST         403          1.0000000000
      1208       403  TIP3  H1           -1.9911099086       -6.2482726052       -1.3290238130  CLST         403          1.0000000000
      1209       403  TIP3  H2           -1.7604600716       -7.8010609111       -1.3341751859  CLST         403          1.0000000000
      1210       404  TIP3  OH2          -4.8710909501       -2.3600413037        9.3411653555  CLST         404          1.0000000000
      1211       404  TIP3  H1           -5.0216156241       -2.7513801371       10.1996899354  CLST         404          1.0000000000
      1212       404  TIP3  H2           -5.2294840012       -3.1418656070        8.8233544349  CLST         404          1.0000000000
      1213       405  TIP3  OH2         -12.0061178191        7.2143379583       11.2749593568  CLST         405          1.0000000000
      1214       405  TIP3  H1          -11.8400511401        6.3763151939       10.7968360273  CLST         405          1.0000000000
      1215       405  TIP3  H2          -12.7913526920        6.8648998204       11.7279074489  CLST         405          1.0000000000
      1216       406  TIP3  OH2           0.9523221981        7.6945605538      -12.2200478849  CLST         406          1.0000000000
      1217       406  TIP3  H1            1.1726592888        8.6592045984      -12.4828179723  CLST         406          1.0000000000
      1218       406  TIP3  H2            1.4400667523        7.5866465652      -11.3545544488  CLST         406          1.0000000000
      1219       407  TIP3  OH2          10.4057238853      -13.1201831924        5.1421541615  CLST         407          1.0000000000
      1220       407  TIP3  H1           10.6474083264      -13.1720535337        4.1721050693  CLST         407          1.0000000000
      1221       407  TIP3  H2           11.2040212965      -12.5608049642        5.3698534585  CLST         407          1.0000000000
      1222       408  TIP3  OH2          -2.8775983915      -11.6760815090        2.1074270083  CLST         408          1.0000000000
      1223       408  TIP3  H1           -2.0892741785      -11.0796628743        1.9653890146  CLST         408          1.0000000000
      1224       408  TIP3  H2           -2.3539130064      -12.4825741969        1.9642661292  CLST         408          1.0000000000
      1225       409  TIP3  OH2           1.1557610601       -9.5188593954        9.6742325575  CLST         409          1.0000000000
      1226       409  TIP3  H1            0.6438412057       -9.6528405644       10.5358475840  CLST         409          1.0000000000
      1227       409  TIP3  H2            1.6853605419      -10.3426894908        9.7152094801  CLST         409          1.0000000000
      1228       410  TIP3  OH2           9.8896270583       -7.0639943256       -5.2430526428  CLST         410          1.0000000000
      1229       410  TIP3  H1            9.1107029719       -6.7611184840       -5.7258065251  CLST         410          1.0000000000
      1230       410  TIP3  H2           10.4572332183       -6.2655985828       -5.5151022446  CLST         410          1.0000000000
      1231       411  TIP3  OH2         -10.0218094875       -2.2509819253       -1.3739608803  CLST         411          1.0000000000
      1232       411  TIP3  H1           -9.2293029033       -1.8781473402       -1.0131611168  CLST         411          1.0000000000
      1233       411  TIP3  H2           -9.6594626770       -2.7791417873       -2.1472757324  CLST         411          1.0000000000
      1234       412  TIP3  OH2           6.7445849734      -10.5829837257      -12.0127993010  CLST         412          1.0000000000
      1235       412  TIP3  H1            6.1107276239      -10.8721610948      -11.3071969744  CLST         412          1.0000000000
      1236       412  TIP3  H2            7.5146441422      -11.2210455709      -11.8533733834  CLST         412          1.0000000000
      1237       413  TIP3  OH2           7.1073992498       13.0680008185        0.1827698092  CLST         413          1.0000000000
      1238       413  TIP3  H1            7.8161397771       12.5144995095       -0.2748460860  CLST         413          1.0000000000
      1239       413  TIP3  H2            7.7168365749       13.6093505794        0.6970463089  CLST         413          1.0000000000
      1240       414  TIP3  OH2           1.3650288133       -2.5168680621      -12.5976560693  CLST         414          1.0000000000
      1241       414  TIP3  H1            0.4974887968       -2.0932804668      -12.3906634827  CLST         414          1.0000000000
      1242       414  TIP3  H2            1.3932898002       -2.8353137895      -13.4406723209  CLST         414          1.0000000000
      1243       415  TIP3  OH2           4.0907673663        5.1811425508       -8.1208599215  CLST         415          1.0000000000
      1244       415  TIP3  H1            3.3522517074        3.9272243901       -8.4169652316  CLST         415          1.0000000000
      1245       415  TIP3  H2            4.7257098033        4.1560655397       -8.5044336085  CLST         415          1.0000000000
      1246       416  TIP3  OH2           5.5407676308       12.3691325998       -7.8161265159  CLST         416          1.0000000000
      1247       416  TIP3  H1            5.1510323592       12.9768422786       -8.3661966329  CLST         416          1.0000000000
      1248       416  TIP3  H2            6.4657418781       12.3091205863       -8.2787219758  CLST         416          1.0000000000
      1249       417  TIP3  OH2          12.5855815757      -11.2130194581        2.8173779347  CLST         417          1.0000000000
      1250       417  TIP3  H1           11.9748737434      -11.8204208622        2.3564616166  CLST         417          1.0000000000
      1251       417  TIP3  H2           12.5017487763      -10.4185212453        2.2826438845  CLST         417          1.0000000000
      1252       418  TIP3  OH2          -9.1427593563       -1.5621286320        8.4287965324  CLST         418          1.0000000000
      1253       418  TIP3  H1           -8.7168530707       -1.0791339849        7.6770781344  CLST         418          1.0000000000
      1254       418  TIP3  H2           -9.2283448162       -0.7940426163        9.0488763058  CLST         418          1.0000000000
      1255       419  TIP3  OH2          14.8266793544        0.6046041156       -5.9086044957  CLST         419          1.0000000000
      1256       419  TIP3  H1           14.2221453798        0.9955045140       -5.2178882557  CLST         419          1.0000000000
      1257       419  TIP3  H2           15.5817906372        1.1264078887       -5.6993982095  CLST         419          1.0000000000
      1258       420  TIP3  OH2          -8.2113111612       -8.2386044362        3.5775636793  CLST         420          1.0000000000
      1259       420  TIP3  H1           -8.9254519000       -8.0283619241        2.8983371144  CLST         420          1.0000000000
      1260       420  TIP3  H2           -8.4693442082       -9.1781369977        3.7733804613  CLST         420          1.0000000000
      1261       421  TIP3  OH2           3.5460544106       -6.3211107013      -13.3188497989  CLST         421          1.0000000000
      1262       421  TIP3  H1            4.3980996060       -6.7569684973      -13.2814529472  CLST         421          1.0000000000
      1263       421  TIP3  H2            2.9997120106       -7.1341197778      -13.4609245695  CLST         421          1.0000000000
      1264       422  TIP3  OH2          -1.7892196077       -9.3142731526       -1.7691952756  CLST         422          1.0000000000
      1265       422  TIP3  H1           -1.2542089849      -10.0982390394       -1.4709958208  CLST         422          1.0000000000
      1266       422  TIP3  H2           -2.5822941099       -9.8618457254       -1.8575750235  CLST         422          1.0000000000
      1267       423  TIP3  OH2           1.7972296034        4.8660512118       -4.1355927680  CLST         423          1.0000000000
      1268       423  TIP3  H1            2.5619886280        5.4334715347       -4.5246654869  CLST         423          1.0000000000
      1269       423  TIP3  H2            2.1231414677        4.8379094342       -3.2167986445  CLST         423          1.0000000000
      1270       424  TIP3  OH2          -9.0057930480        4.3822588040        4.6065686087  CLST         424          1.0000000000
      1271       424  TIP3  H1           -8.8012383273        3.7437514104        3.9085336735  CLST         424          1.0000000000
      1272       424  TIP3  H2           -8.8537004598        5.2209908965        4.1361270730  CLST         424          1.0000000000
      1273       425  TIP3  OH2           8.1573988552      -12.5770502842        8.3839077416  CLST         425          1.0000000000
      1274       425  TIP3  H1            8.2227422471      -11.9700796881        7.6150780615  CLST         425          1.0000000000
      1275       425  TIP3  H2            7.9584864888      -11.8388689765        9.0045871657  CLST         425          1.0000000000
      1276       426  TIP3  OH2           8.3423872950        2.2460798244        8.3355051793  CLST         426          1.0000000000
      1277       426  TIP3  H1            8.7764307783        2.2756852148        9.1705869148  CLST         426          1.0000000000
      1278       426  TIP3  H2            8.4552580563        3.1855767477        8.0473274839  CLST         426          1.0000000000
      1279       427  TIP3  OH2          11.5075426193        7.5253908067       11.0167656975  CLST         427          1.0000000000
      1280       427  TIP3  H1           11.5204509235        8.1843398028       11.7371396376  CLST         427          1.0000000000
      1281       427  TIP3  H2           10.6744863324        7.0334789935       11.1497023573  CLST         427          1.0000000000
      1282       428  TIP3  OH2          12.6293501762        7.6572021544        1.1989378783  CLST         428          1.0000000000
      1283       428  TIP3  H1           12.4283202200        7.9499436020        0.2202401812  CLST         428          1.0000000000
      1284       428  TIP3  H2           13.4943209897        7.6991972520        1.1902107300  CLST         428          1.0000000000
      1285       429  TIP3  OH2          11.8656379139       -9.8217443734       -0.8107030082  CLST         429          1.0000000000
      1286       429  TIP3  H1           12.2318580440       -9.3311998761       -0.0252686036  CLST         429          1.0000000000
      1287       429  TIP3  H2           11.3870023173       -9.1226879567       -1.2856408378  CLST         429          1.0000000000
      1288       430  TIP3  OH2           9.8165289326       -6.5734621158        3.5173771534  CLST         430          1.0000000000
      1289       430  TIP3  H1            9.7758998722       -7.0507011185        2.6235907066  CLST         430          1.0000000000
      1290       430  TIP3  H2           10.8142113257       -6.6690727057        3.5957388184  CLST         430          1.0000000000
      1291       431  TIP3  OH2         -12.9389261191        9.4112048364       -2.4724300586  CLST         431          1.0000000000
      1292       431  TIP3  H1          -13.4949155695        9.7437846997       -3.0582716348  CLST         431          1.0000000000
      1293       431  TIP3  H2          -13.4962004107        9.3375365315       -1.6080287941  CLST         431          1.0000000000
      1294       432  TIP3  OH2           5.4510122799        8.4105935156      -10.1825986956  CLST         432          1.0000000000
      1295       432  TIP3  H1            5.8795605232        8.5215531593       -9.2661358234  CLST         432          1.0000000000
      1296       432  TIP3  H2            4.8139666613        9.1342077618      -10.0546938479  CLST         432          1.0000000000
      1297       433  TIP3  OH2          -0.6137978930        8.0506546775        7.7832415664  CLST         433          1.0000000000
      1298       433  TIP3  H1           -1.4878931099        8.3733154933        8.1262228544  CLST         433          1.0000000000
      1299       433  TIP3  H2           -0.9342265521        7.2397290146        7.3090972466  CLST         433          1.0000000000
      1300       434  TIP3  OH2          -7.3101173002        0.7743647843        3.8502922408  CLST         434          1.0000000000
      1301       434  TIP3  H1           -7.6038456248        1.4858518721        3.1237482977  CLST         434          1.0000000000
      1302       434  TIP3  H2           -8.0281813124        0.0902899619        3.5954785673  CLST         434          1.0000000000
      1303       435  TIP3  OH2           9.9466342246       -0.4784631830       -7.1476047712  CLST         435          1.0000000000
      1304       435  TIP3  H1            9.7522393776       -0.6419568447       -6.2141577729  CLST         435          1.0000000000
      1305       435  TIP3  H2           10.2277508412        0.4093248366       -7.2076930033  CLST         435          1.0000000000
      1306       436  TIP3  OH2           3.6514987408       10.5350574984       -9.0851783605  CLST         436          1.0000000000
      1307       436  TIP3  H1            3.6189280140       11.2369134446       -8.3791019468  CLST         436          1.0000000000
      1308       436  TIP3  H2            2.7925186826       10.1208311501       -8.7915023416  CLST         436          1.0000000000
      1309       437  TIP3  OH2          -8.5235163633       -0.7363226594       -8.1046106013  CLST         437          1.0000000000
      1310       437  TIP3  H1           -8.7937355582       -0.2649326268       -8.9033665895  CLST         437          1.0000000000
      1311       437  TIP3  H2           -7.5996508612       -0.5306767350       -8.1466924961  CLST         437          1.0000000000
      1312       438  TIP3  OH2          -3.4312573667        5.4073568740       -8.1409438353  CLST         438          1.0000000000
      1313       438  TIP3  H1           -4.2076748393        6.0188002293       -7.8920933118  CLST         438          1.0000000000
      1314       438  TIP3  H2           -3.6225291253        5.6026917240       -9.1056039563  CLST         438          1.0000000000
      1315       439  TIP3  OH2          14.2714062330        1.6307608697       -3.8930399829  CLST         439          1.0000000000
      1316       439  TIP3  H1           13.7018419278        2.3725530859       -4.0111677931  CLST         439          1.0000000000
      1317       439  TIP3  H2           13.7100997604        1.1243697723       -3.2647702750  CLST         439          1.0000000000
      1318       440  TIP3  OH2           1.2716973903      -12.9747004894      -11.2133392531  CLST         440          1.0000000000
      1319       440  TIP3  H1            0.2636546366      -12.7541658860      -11.1407536246  CLST         440          1.0000000000
      1320       440  TIP3  H2            1.3303543137      -13.6379382726      -11.7420484298  CLST         440          1.0000000000
      1321       441  TIP3  OH2          -1.6167540550       -4.4248815211        3.0510026146  CLST         441          1.0000000000
      1322       441  TIP3  H1           -2.0504477859       -3.6215655105        3.1556158977  CLST         441          1.0000000000
      1323       441  TIP3  H2           -1.2452373780       -4.6199915498        3.9218844921  CLST         441          1.0000000000
      1324       442  TIP3  OH2           3.2816858526       -9.7568029244       -8.0696035249  CLST         442          1.0000000000
      1325       442  TIP3  H1            3.6017778586      -10.4449478486       -8.7367246764  CLST         442          1.0000000000
      1326       442  TIP3  H2            2.4119344102       -9.5664891969       -8.5549543411  CLST         442          1.0000000000
      1327       443  TIP3  OH2           1.2735176661       10.3653912410      -12.9131810466  CLST         443          1.0000000000
      1328       443  TIP3  H1            1.4635755130       11.0505803276      -12.1390782687  CLST         443          1.0000000000
      1329       443  TIP3  H2            1.7673351495       10.8783948979      -13.5335437259  CLST         443          1.0000000000
      1330       444  TIP3  OH2          -7.9777148042        1.3170206746       -1.8707954315  CLST         444          1.0000000000
      1331       444  TIP3  H1           -7.9949805323        2.0099302352       -2.6013407244  CLST         444          1.0000000000
      1332       444  TIP3  H2           -7.4762902334        1.9268989041       -1.2239064167  CLST         444          1.0000000000
      1333       445  TIP3  OH2         -11.5481333118       -5.1030889564        6.0897005993  CLST         445          1.0000000000
      1334       445  TIP3  H1          -11.2842901154       -4.2048498820        5.7849676790  CLST         445          1.0000000000
      1335       445  TIP3  H2          -11.4618182960       -4.9152021527        7.1036959524  CLST         445          1.0000000000
      1336       446  TIP3  OH2          -3.0657826205        4.6293915661       -5.2959194279  CLST         446          1.0000000000
      1337       446  TIP3  H1           -3.4296426584        4.9245011214       -6.1919632185  CLST         446          1.0000000000
      1338       446  TIP3  H2           -2.1693300102        5.1481330535       -5.3328045319  CLST         446          1.0000000000
      1339       447  TIP3  OH2          -5.0932912651      -12.5420934199       -3.8157036266  CLST         447          1.0000000000
      1340       447  TIP3  H1           -5.7965568017      -12.9609762450       -3.3272969578  CLST         447          1.0000000000
      1341       447  TIP3  H2           -4.7604849066      -11.9387127321       -3.0943003137  CLST         447          1.0000000000
      1342       448  TIP3  OH2           7.3179981587        9.5783823925        4.7988409221  CLST         448          1.0000000000
      1343       448  TIP3  H1            7.6210402083        9.7488200086        5.7694720441  CLST         448          1.0000000000
      1344       448  TIP3  H2            6.4728708232       10.0868081875        4.9338693904  CLST         448          1.0000000000
      1345       449  TIP3  OH2           4.3093868805        5.2160265321        8.5336042174  CLST         449          1.0000000000
      1346       449  TIP3  H1            4.9820003617        4.6578645403        9.0251147452  CLST         449          1.0000000000
      1347       449  TIP3  H2            3.9385943817        4.6190917492        7.8693383833  CLST         449          1.0000000000
      1348       450  TIP3  OH2          -3.9853489999        0.6241582591       -1.9792084312  CLST         450          1.0000000000
      1349       450  TIP3  H1           -3.6425888132        1.2546162087       -2.6224076866  CLST         450          1.0000000000
      1350       450  TIP3  H2           -3.1671981883        0.1236015084       -1.7335535068  CLST         450          1.0000000000
      1351       451  TIP3  OH2          13.5909178411       -2.0267783063       -5.6995999751  CLST         451          1.0000000000
      1352       451  TIP3  H1           15.2803116204       -2.0286488382       -5.7126336091  CLST         451          1.0000000000
      1353       451  TIP3  H2           14.2190366320       -1.0409647722       -6.2941549886  CLST         451          1.0000000000
      1354       452  TIP3  OH2           8.4143506509        4.8017590686        8.0845495858  CLST         452          1.0000000000
      1355       452  TIP3  H1            7.6687734762        5.4453073507        7.8460954406  CLST         452          1.0000000000
      1356       452  TIP3  H2            9.0636021072        5.3258827181        7.5296606725  CLST         452          1.0000000000
      1357       453  TIP3  OH2           6.9399183593        2.8523337103       -6.1107691334  CLST         453          1.0000000000
      1358       453  TIP3  H1            6.1176227640        2.6420188167       -5.6017034334  CLST         453          1.0000000000
      1359       453  TIP3  H2            6.4623526668        2.8737334215       -6.9823765328  CLST         453          1.0000000000
      1360       454  TIP3  OH2           1.1563570416        5.5431329970        2.0436532966  CLST         454          1.0000000000
      1361       454  TIP3  H1            0.3122976826        5.1596768884        1.6498755401  CLST         454          1.0000000000
      1362       454  TIP3  H2            0.8002609548        6.0757129294        2.8065514738  CLST         454          1.0000000000
      1363       455  TIP3  OH2          -1.1384519426        0.8592910876      -10.4565780866  CLST         455          1.0000000000
      1364       455  TIP3  H1           -1.7962740105        1.3864728007       -9.9704446624  CLST         455          1.0000000000
      1365       455  TIP3  H2           -0.5480689208        1.6376898567      -10.6198948665  CLST         455          1.0000000000
      1366       456  TIP3  OH2           5.3553843650       11.3876231798        5.2706536837  CLST         456          1.0000000000
      1367       456  TIP3  H1            4.7713790909       11.7777479446        4.5488431388  CLST         456          1.0000000000
      1368       456  TIP3  H2            4.6709282290       11.0732689712        5.8879748694  CLST         456          1.0000000000
      1369       457  TIP3  OH2          -4.8207437351       -7.7822949874        4.8704894366  CLST         457          1.0000000000
      1370       457  TIP3  H1           -5.6767477033       -7.7211603826        5.3994499045  CLST         457          1.0000000000
      1371       457  TIP3  H2           -5.1416417044       -7.4097009716        3.9778180008  CLST         457          1.0000000000
      1372       458  TIP3  OH2           8.0060733478       -6.4231730435      -11.2499072262  CLST         458          1.0000000000
      1373       458  TIP3  H1            8.9215183854       -6.2190099825      -11.5428955969  CLST         458          1.0000000000
      1374       458  TIP3  H2            7.8434837877       -5.5787255929      -10.7770036774  CLST         458          1.0000000000
      1375       459  TIP3  OH2           6.6099478488       -9.8629950661       -7.7826480225  CLST         459          1.0000000000
      1376       459  TIP3  H1            6.1537454731       -9.0023708577       -7.6098854341  CLST         459          1.0000000000
      1377       459  TIP3  H2            7.3969292835       -9.5385339903       -8.2962130679  CLST         459          1.0000000000
      1378       460  TIP3  OH2           9.1442036129       -2.1945842889       -2.8053288313  CLST         460          1.0000000000
      1379       460  TIP3  H1            9.6901078687       -2.6425814847       -2.1485762142  CLST         460          1.0000000000
      1380       460  TIP3  H2            9.8010992113       -1.8165771583       -3.4459167767  CLST         460          1.0000000000
      1381       461  TIP3  OH2          -1.4581660115      -12.7652713629       -5.4344821374  CLST         461          1.0000000000
      1382       461  TIP3  H1           -0.7857800715      -13.0828758564       -6.0344521353  CLST         461          1.0000000000
      1383       461  TIP3  H2           -1.0358919111      -13.0893654975       -4.5975398663  CLST         461          1.0000000000
      1384       462  TIP3  OH2          -0.1820632694        5.4042520055      -12.7540022185  CLST         462          1.0000000000
      1385       462  TIP3  H1           -0.0382788965        6.3820944093      -12.4932790819  CLST         462          1.0000000000
      1386       462  TIP3  H2            0.6917393220        5.3696147716      -13.1811868816  CLST         462          1.0000000000
      1387       463  TIP3  OH2          -1.8445430557        1.8893123571       -7.7937375886  CLST         463          1.0000000000
      1388       463  TIP3  H1           -1.5305897382        1.1110188643       -7.2804269901  CLST         463          1.0000000000
      1389       463  TIP3  H2           -2.7897930837        1.9329431535       -7.5065139927  CLST         463          1.0000000000
      1390       464  TIP3  OH2          -6.5822271955        6.4088129619        4.2292253585  CLST         464          1.0000000000
      1391       464  TIP3  H1           -6.2850388249        5.6623694543        4.7403359174  CLST         464          1.0000000000
      1392       464  TIP3  H2           -6.7929103502        7.0753869715        4.9773919056  CLST         464          1.0000000000
      1393       465  TIP3  OH2          -4.6150272262      -12.5912215231        6.4010249170  CLST         465          1.0000000000
      1394       465  TIP3  H1           -3.8247457957      -13.0482759148        5.9957125149  CLST         465          1.0000000000
      1395       465  TIP3  H2           -4.2174328753      -11.6586525852        6.4606495763  CLST         465          1.0000000000
      1396       466  TIP3  OH2          -2.5739551563        9.0746428522       -4.3057574033  CLST         466          1.0000000000
      1397       466  TIP3  H1           -3.2153504264        9.2673802046       -5.0477769880  CLST         466          1.0000000000
      1398       466  TIP3  H2           -2.8287208315        9.7486394549       -3.6811339919  CLST         466          1.0000000000
      1399       467  TIP3  OH2           8.2978653533        5.8658553865        4.6534796893  CLST         467          1.0000000000
      1400       467  TIP3  H1            8.8758131490        6.2336115988        5.3771351382  CLST         467          1.0000000000
      1401       467  TIP3  H2            8.3055811490        6.6544869715        4.0660441955  CLST         467          1.0000000000
      1402       468  TIP3  OH2          -0.5111947186      -12.3764630937       10.3185442385  CLST         468          1.0000000000
      1403       468  TIP3  H1           -1.0375836095      -12.1261197823       11.0941018776  CLST         468          1.0000000000
      1404       468  TIP3  H2            0.4098176616      -12.3437053303       10.6496273887  CLST         468          1.0000000000
      1405       469  TIP3  OH2           5.5238043136        8.3391127469       14.1658678166  CLST         469          1.0000000000
      1406       469  TIP3  H1            6.2442950012        8.4503991875       13.5131985533  CLST         469          1.0000000000
      1407       469  TIP3  H2            4.8778714126        8.9275275965       13.7617152950  CLST         469          1.0000000000
      1408       470  TIP3  OH2         -11.2005465857       12.8967386082        0.6310857290  CLST         470          1.0000000000
      1409       470  TIP3  H1          -10.9471740785       12.6054303982       -0.2613020543  CLST         470          1.0000000000
      1410       470  TIP3  H2          -11.7747214660       12.1972496762        0.9536621304  CLST         470          1.0000000000
      1411       471  TIP3  OH2          -4.3286026016        9.7366629950       -9.0620729909  CLST         471          1.0000000000
      1412       471  TIP3  H1           -4.0435832471        8.8380803937       -9.2925563882  CLST         471          1.0000000000
      1413       471  TIP3  H2           -4.6516455165       10.0248585888       -9.9649203838  CLST         471          1.0000000000
      1414       472  TIP3  OH2         -11.8681180383        3.8704110476        2.9220758037  CLST         472          1.0000000000
      1415       472  TIP3  H1          -12.2753607075        3.0438622456        3.2702222556  CLST         472          1.0000000000
      1416       472  TIP3  H2          -11.4675582005        3.4906167067        2.0805436770  CLST         472          1.0000000000
      1417       473  TIP3  OH2           5.3238992631        0.8755439743       10.1508193288  CLST         473          1.0000000000
      1418       473  TIP3  H1            6.0034473640        1.5544424844       10.1443258579  CLST         473          1.0000000000
      1419       473  TIP3  H2            4.5194577188        1.4251597604       10.0096194957  CLST         473          1.0000000000
      1420       474  TIP3  OH2           1.3399449679        1.8060689430        1.5233016809  CLST         474          1.0000000000
      1421       474  TIP3  H1            0.4185464660        1.7433266890        1.1746522756  CLST         474          1.0000000000
      1422       474  TIP3  H2            1.7494453611        1.2432353776        0.8376968182  CLST         474          1.0000000000
      1423       475  TIP3  OH2           6.0302629972       -8.6816308007       12.0321892097  CLST         475          1.0000000000
      1424       475  TIP3  H1            6.7925529383       -8.6973805053       12.6492642950  CLST         475          1.0000000000
      1425       475  TIP3  H2            6.1738485299       -9.1582176168       11.1823896918  CLST         475          1.0000000000
      1426       476  TIP3  OH2         -11.4787123507       -9.0019862035       -0.0859368659  CLST         476          1.0000000000
      1427       476  TIP3  H1          -11.8385839179       -8.1972248484       -0.5543463105  CLST         476          1.0000000000
      1428       476  TIP3  H2          -10.9020208062       -9.3050272996       -0.7958856488  CLST         476          1.0000000000
      1429       477  TIP3  OH2         -12.3253603339        3.6230442107      -13.3288444326  CLST         477          1.0000000000
      1430       477  TIP3  H1          -12.5633649553        2.8086716111      -12.9637077369  CLST         477          1.0000000000
      1431       477  TIP3  H2          -11.8985818378        3.2409336975      -14.0961836260  CLST         477          1.0000000000
      1432       478  TIP3  OH2          -3.9095740983        6.7342577609      -10.5741743913  CLST         478          1.0000000000
      1433       478  TIP3  H1           -4.3910531258        6.2596377455      -11.2567273571  CLST         478          1.0000000000
      1434       478  TIP3  H2           -3.2279838792        7.1986639343      -11.1617017741  CLST         478          1.0000000000
      1435       479  TIP3  OH2           7.8476247962       -1.6235845540       -8.5469732945  CLST         479          1.0000000000
      1436       479  TIP3  H1            8.7033079307       -1.1506257287       -8.2256068723  CLST         479          1.0000000000
      1437       479  TIP3  H2            7.3178150812       -1.4592614926       -7.6912245287  CLST         479          1.0000000000
      1438       480  TIP3  OH2          -6.0644464717        7.6782517098       -0.0260086546  CLST         480          1.0000000000
      1439       480  TIP3  H1           -5.1382025752        8.0539266245       -0.0431526366  CLST         480          1.0000000000
      1440       480  TIP3  H2           -5.7616598993        6.7291507774        0.0300209090  CLST         480          1.0000000000
      1441       481  TIP3  OH2          -3.1106621927        2.4035666343       11.9191221798  CLST         481          1.0000000000
      1442       481  TIP3  H1           -2.1150651876        2.4359046376       11.7431407031  CLST         481          1.0000000000
      1443       481  TIP3  H2           -3.1907928397        1.5545145210       12.4046796144  CLST         481          1.0000000000
      1444       482  TIP3  OH2          -8.0122894469       11.5505604259       -7.6145294583  CLST         482          1.0000000000
      1445       482  TIP3  H1           -8.5825223777       11.4469928856       -8.4239230454  CLST         482          1.0000000000
      1446       482  TIP3  H2           -7.2311824534       11.9848532144       -8.0824212032  CLST         482          1.0000000000
      1447       483  TIP3  OH2           6.2592368919       -5.7656678729       12.5727796105  CLST         483          1.0000000000
      1448       483  TIP3  H1            5.5836798989       -6.4146435301       12.5167048015  CLST         483          1.0000000000
      1449       483  TIP3  H2            6.3575011089       -5.6120625896       11.6019580750  CLST         483          1.0000000000
      1450       484  TIP3  OH2           6.8701636335       -2.9650567471        3.1009719037  CLST         484          1.0000000000
      1451       484  TIP3  H1            5.8869723412       -3.0735014167        2.8720189313  CLST         484          1.0000000000
      1452       484  TIP3  H2            6.7238334958       -2.2419917150        3.7615791430  CLST         484          1.0000000000
      1453       485  TIP3  OH2         -11.8701239364        4.4953806070       10.0568869663  CLST         485          1.0000000000
      1454       485  TIP3  H1          -11.4792604856        3.5636813113       10.1521283390  CLST         485          1.0000000000
      1455       485  TIP3  H2          -12.5867367987        4.2262613249        9.3182171853  CLST         485          1.0000000000
      1456       486  TIP3  OH2           8.4370945045       -7.2718761370       13.7121739695  CLST         486          1.0000000000
      1457       486  TIP3  H1            8.6239018951       -7.0596964621       14.5650191597  CLST         486          1.0000000000
      1458       486  TIP3  H2            7.6927120871       -6.6566439084       13.4586859010  CLST         486          1.0000000000
      1459       487  TIP3  OH2          12.0900525003       -8.5053139927        6.1297151659  CLST         487          1.0000000000
      1460       487  TIP3  H1           11.1220549201       -8.4257622688        6.1241318850  CLST         487          1.0000000000
      1461       487  TIP3  H2           12.1473577290       -8.6141865672        7.1540214856  CLST         487          1.0000000000
      1462       488  TIP3  OH2          15.0277829453        8.5729168124        7.6151878931  CLST         488          1.0000000000
      1463       488  TIP3  H1           14.9566061756        7.7537703995        8.2412841029  CLST         488          1.0000000000
      1464       488  TIP3  H2           13.6785514307        7.0697901866        8.5081339743  CLST         488          1.0000000000
      1465       489  TIP3  OH2          -6.1361802160      -10.7542681227       11.8283522445  CLST         489          1.0000000000
      1466       489  TIP3  H1           -6.6783251516       -9.9947216494       12.0350211029  CLST         489          1.0000000000
      1467       489  TIP3  H2           -6.8424730361      -11.1365770847       11.1677177462  CLST         489          1.0000000000
      1468       490  TIP3  OH2           6.8422630414      -13.0311877051        2.2780500739  CLST         490          1.0000000000
      1469       490  TIP3  H1            6.8290123100      -12.1449791498        2.7623058345  CLST         490          1.0000000000
      1470       490  TIP3  H2            6.8042068450      -13.6798491023        2.9419623992  CLST         490          1.0000000000
      1471       491  TIP3  OH2           3.0521954169       -9.2129674411        4.9001713883  CLST         491          1.0000000000
      1472       491  TIP3  H1            2.3231460081       -8.8828126529        5.4575736908  CLST         491          1.0000000000
      1473       491  TIP3  H2            2.4736656391       -9.5902799857        4.1967159402  CLST         491          1.0000000000
      1474       492  TIP3  OH2          -0.5710333719       -6.5471478164       12.2689204905  CLST         492          1.0000000000
      1475       492  TIP3  H1           -0.4168257300       -7.5358120922       12.3007359920  CLST         492          1.0000000000
      1476       492  TIP3  H2           -1.4153253732       -6.5026087796       11.7572781249  CLST         492          1.0000000000
      1477       493  TIP3  OH2           3.5264333022       10.7236593980        7.2620910959  CLST         493          1.0000000000
      1478       493  TIP3  H1            4.2411122409       10.9001487971        7.9440051438  CLST         493          1.0000000000
      1479       493  TIP3  H2            2.7794235232       10.3636762719        7.7516053323  CLST         493          1.0000000000
      1480       494  TIP3  OH2          -9.1889459470        5.3540459656       -0.6826072646  CLST         494          1.0000000000
      1481       494  TIP3  H1           -9.4928972051        6.0283761649       -1.2781008081  CLST         494          1.0000000000
      1482       494  TIP3  H2           -9.7716333847        5.5035921145        0.1058404141  CLST         494          1.0000000000
      1483       495  TIP3  OH2           4.9923905891       -6.7880572162       -1.9476375025  CLST         495          1.0000000000
      1484       495  TIP3  H1            5.4522091415       -6.2934449186       -2.6735934625  CLST         495          1.0000000000
      1485       495  TIP3  H2            5.8640599259       -7.2329528939       -1.7175977452  CLST         495          1.0000000000
      1486       496  TIP3  OH2         -12.7930347363      -10.6919089114        7.5613696732  CLST         496          1.0000000000
      1487       496  TIP3  H1          -13.2323719074      -11.3375869106        8.0531941582  CLST         496          1.0000000000
      1488       496  TIP3  H2          -12.5503260774      -11.3176930668        6.8437915734  CLST         496          1.0000000000
      1489       497  TIP3  OH2          -9.6497861683      -13.4032655066       -7.3713774393  CLST         497          1.0000000000
      1490       497  TIP3  H1          -10.0475105547      -14.1698350256       -7.6151277279  CLST         497          1.0000000000
      1491       497  TIP3  H2          -10.2925583697      -12.7744272213       -7.7362567233  CLST         497          1.0000000000
      1492       498  TIP3  OH2          -5.6019538224        0.3870213433      -11.0351584414  CLST         498          1.0000000000
      1493       498  TIP3  H1           -5.9228255748        0.2383109324      -11.9625078151  CLST         498          1.0000000000
      1494       498  TIP3  H2           -5.3339684746        1.3022773783      -11.0845866986  CLST         498          1.0000000000
      1495       499  TIP3  OH2          11.4764889968        6.6047738518        3.6118428315  CLST         499          1.0000000000
      1496       499  TIP3  H1           12.1968753220        6.9343237883        3.0927090495  CLST         499          1.0000000000
      1497       499  TIP3  H2           10.9943253942        7.4204758761        3.8872884336  CLST         499          1.0000000000
      1498       500  TIP3  OH2           2.3719690208       -8.7760140052      -13.1665218196  CLST         500          1.0000000000
      1499       500  TIP3  H1            1.7917846242       -9.1825974928      -13.7487799463  CLST         500          1.0000000000
      1500       500  TIP3  H2            2.5933228380       -9.5561697810      -12.5803319504  CLST         500          1.0000000000
      1501       501  TIP3  OH2           1.2708687129      -11.0273644020       13.9862992608  CLST         501          1.0000000000
      1502       501  TIP3  H1            1.4484357496      -11.5865655679       14.6700961854  CLST         501          1.0000000000
      1503       501  TIP3  H2            2.2053958305      -10.6049734870       13.8641580397  CLST         501          1.0000000000
      1504       502  TIP3  OH2           6.1076687155        3.7031559840        9.8304266463  CLST         502          1.0000000000
      1505       502  TIP3  H1            6.4900078260        4.0686798602       10.6439364484  CLST         502          1.0000000000
      1506       502  TIP3  H2            6.8708275700        3.7357990955        9.2704995525  CLST         502          1.0000000000
      1507       503  TIP3  OH2          10.2705454000       -0.9957404001        0.3623926713  CLST         503          1.0000000000
      1508       503  TIP3  H1           11.1970822370       -0.8964435632        0.6172882806  CLST         503          1.0000000000
      1509       503  TIP3  H2           10.2598820519       -0.2810875604       -0.2799540838  CLST         503          1.0000000000
      1510       504  TIP3  OH2           8.2322716541      -13.8012079770       10.8496966801  CLST         504          1.0000000000
      1511       504  TIP3  H1            7.9797116545      -13.5763571363        9.9035898834  CLST         504          1.0000000000
      1512       504  TIP3  H2            8.0470533919      -14.7400247575       10.7705255223  CLST         504          1.0000000000
      1513       505  TIP3  OH2           3.6833821461      -10.8225787577       -5.5013327132  CLST         505          1.0000000000
      1514       505  TIP3  H1            3.4669224905      -10.2458671729       -6.2669408560  CLST         505          1.0000000000
      1515       505  TIP3  H2            3.4561192148      -10.2880743599       -4.7102244699  CLST         505          1.0000000000
      1516       506  TIP3  OH2          -9.1983610274       -3.2742059453       -8.2068311244  CLST         506          1.0000000000
      1517       506  TIP3  H1           -8.8338861955       -2.3462691973       -8.1274941554  CLST         506          1.0000000000
      1518       506  TIP3  H2           -9.9802788021       -3.0824247458       -8.7776318248  CLST         506          1.0000000000
      1519       507  TIP3  OH2          11.0784967366        9.7378971163      -12.9499351762  CLST         507          1.0000000000
      1520       507  TIP3  H1           11.3746451203       10.0266848754      -13.6732185197  CLST         507          1.0000000000
      1521       507  TIP3  H2           11.0927266110        8.8055598775      -12.6362718376  CLST         507          1.0000000000
      1522       508  TIP3  OH2           9.2231070618       12.2850256406        8.8828426341  CLST         508          1.0000000000
      1523       508  TIP3  H1            8.6809444432       12.0190359274        8.1006700855  CLST         508          1.0000000000
      1524       508  TIP3  H2           10.0684705939       12.4774495590        8.4042284577  CLST         508          1.0000000000
      1525       509  TIP3  OH2          -0.7733456189       -1.5438196255      -11.2926746574  CLST         509          1.0000000000
      1526       509  TIP3  H1           -1.6962228153       -1.8300818269      -11.0600211121  CLST         509          1.0000000000
      1527       509  TIP3  H2           -0.8537638915       -0.6001694034      -10.9252214672  CLST         509          1.0000000000
      1528       510  TIP3  OH2           8.2196846483        2.2178022285       11.6801679932  CLST         510          1.0000000000
      1529       510  TIP3  H1            8.0673979211        1.2312579178       11.5787038347  CLST         510          1.0000000000
      1530       510  TIP3  H2            9.0664985795        2.3334037458       11.2092974878  CLST         510          1.0000000000
      1531       511  TIP3  OH2          -8.8133730435       -5.9405340126       -0.7127424897  CLST         511          1.0000000000
      1532       511  TIP3  H1           -9.7654112378       -6.2051614199       -0.7597888099  CLST         511          1.0000000000
      1533       511  TIP3  H2           -8.7461992439       -5.5903926811       -1.6136441532  CLST         511          1.0000000000
      1534       512  TIP3  OH2           9.9694697855        7.0757780703        6.9068980013  CLST         512          1.0000000000
      1535       512  TIP3  H1           10.3317289352        7.6725614683        7.6280469968  CLST         512          1.0000000000
      1536       512  TIP3  H2           10.1749241587        7.7045376476        6.1358440193  CLST         512          1.0000000000
      1537       513  TIP3  OH2         -11.9487018073       10.5406624666        9.2957281211  CLST         513          1.0000000000
      1538       513  TIP3  H1          -11.3014438726       11.2413392517        9.5405211552  CLST         513          1.0000000000
      1539       513  TIP3  H2          -11.9834511418       10.1734723585       10.2237707365  CLST         513          1.0000000000
      1540       514  TIP3  OH2          -4.8708620177        5.1148856350        0.1646791554  CLST         514          1.0000000000
      1541       514  TIP3  H1           -4.0342392312        5.4397341536        0.6229585246  CLST         514          1.0000000000
      1542       514  TIP3  H2           -4.4168683274        4.9343661945       -0.7084328541  CLST         514          1.0000000000
      1543       515  TIP3  OH2          -0.7757463305        0.8255277198       -4.2599094048  CLST         515          1.0000000000
      1544       515  TIP3  H1           -1.6024124516        1.3940233507       -4.1207616736  CLST         515          1.0000000000
      1545       515  TIP3  H2           -0.1857905259        1.6202676438       -4.4724862690  CLST         515          1.0000000000
      1546       516  TIP3  OH2          -7.2942952444       -8.5426241310        6.3976235082  CLST         516          1.0000000000
      1547       516  TIP3  H1           -7.7164945663       -8.3416920624        5.5179720714  CLST         516          1.0000000000
      1548       516  TIP3  H2           -7.7343293995       -7.7282982042        6.8737132875  CLST         516          1.0000000000
      1549       517  TIP3  OH2           0.6122059659       11.1302667127       11.4052720707  CLST         517          1.0000000000
      1550       517  TIP3  H1            0.7124591861       10.8798275956       10.5034121058  CLST         517          1.0000000000
      1551       517  TIP3  H2           -0.3962190694       11.2807543866       11.4107398622  CLST         517          1.0000000000
      1552       518  TIP3  OH2         -11.6205748941       -3.5250148980      -11.4086313330  CLST         518          1.0000000000
      1553       518  TIP3  H1          -11.8470814550       -3.2545798144      -12.3100064038  CLST         518          1.0000000000
      1554       518  TIP3  H2          -10.8164570770       -4.0768688997      -11.6931237714  CLST         518          1.0000000000
      1555       519  TIP3  OH2           2.0766342778        3.4820973898        3.3674055422  CLST         519          1.0000000000
      1556       519  TIP3  H1            1.6653470605        4.2508791126        2.8996695756  CLST         519          1.0000000000
      1557       519  TIP3  H2            1.8211871646        2.7234738007        2.7623352775  CLST         519          1.0000000000
      1558       520  TIP3  OH2         -10.2110744907        6.2117857046        8.1471045765  CLST         520          1.0000000000
      1559       520  TIP3  H1          -10.5395918500        5.6891561819        7.3462715423  CLST         520          1.0000000000
      1560       520  TIP3  H2          -10.5622146551        5.5812616499        8.8508393143  CLST         520          1.0000000000
      1561       521  TIP3  OH2           8.3789311911       -8.9101566071       -9.6104807303  CLST         521          1.0000000000
      1562       521  TIP3  H1            8.4404268792       -9.4177395761      -10.4429915570  CLST         521          1.0000000000
      1563       521  TIP3  H2            8.1076253145       -8.0406367144      -10.0057909794  CLST         521          1.0000000000
      1564       522  TIP3  OH2          -5.5347303299       -7.0137680796        8.0848086060  CLST         522          1.0000000000
      1565       522  TIP3  H1           -5.6030886415       -7.8616286048        7.6657617228  CLST         522          1.0000000000
      1566       522  TIP3  H2           -4.5465600574       -7.2054402277        8.2892731425  CLST         522          1.0000000000
      1567       523  TIP3  OH2          -4.0820353516       12.1522610981      -13.6069039671  CLST         523          1.0000000000
      1568       523  TIP3  H1           -3.1506736074       12.0580521663      -13.4703546107  CLST         523          1.0000000000
      1569       523  TIP3  H2           -4.4579421639       12.4266126028      -14.3199532034  CLST         523          1.0000000000
      1570       524  TIP3  OH2           7.0289007431        3.7760083729       -1.8593988845  CLST         524          1.0000000000
      1571       524  TIP3  H1            7.2359135055        2.9419666218       -2.3285075407  CLST         524          1.0000000000
      1572       524  TIP3  H2            6.0692665702        3.8279693811       -2.1438302480  CLST         524          1.0000000000
      1573       525  TIP3  OH2           0.5693298937        6.8675095627       -2.4415109104  CLST         525          1.0000000000
      1574       525  TIP3  H1            0.5763257327        6.2164902658       -3.1731874475  CLST         525          1.0000000000
      1575       525  TIP3  H2            0.3786157866        6.1797458922       -1.7434288743  CLST         525          1.0000000000
      1576       526  TIP3  OH2           7.0053087627       -5.5652158963       -3.6803601053  CLST         526          1.0000000000
      1577       526  TIP3  H1            7.2985283849       -5.6513387740       -4.6422667031  CLST         526          1.0000000000
      1578       526  TIP3  H2            7.8890435695       -5.8456452907       -3.2826433252  CLST         526          1.0000000000
      1579       527  TIP3  OH2           0.3576592798        7.2301835215        4.0083858544  CLST         527          1.0000000000
      1580       527  TIP3  H1            1.0675921360        7.6076381831        4.6792743812  CLST         527          1.0000000000
      1581       527  TIP3  H2           -0.1568478154        7.9106398679        3.6316126276  CLST         527          1.0000000000
      1582       528  TIP3  OH2          -2.7429341866        9.7493191297        8.8305849546  CLST         528          1.0000000000
      1583       528  TIP3  H1           -3.1774986377        9.7433759085        9.7213403348  CLST         528          1.0000000000
      1584       528  TIP3  H2           -3.6178421906        9.7966558241        8.3548288894  CLST         528          1.0000000000
      1585       529  TIP3  OH2          -5.8838163505       12.3892406583       -9.1703952206  CLST         529          1.0000000000
      1586       529  TIP3  H1           -4.9936465096       12.4990752981       -8.9220051788  CLST         529          1.0000000000
      1587       529  TIP3  H2           -5.7415310202       11.7184905538       -9.8609785939  CLST         529          1.0000000000
      1588       530  TIP3  OH2          -4.3485328704       -5.6588483722      -13.1539116855  CLST         530          1.0000000000
      1589       530  TIP3  H1           -4.2447224886       -6.6720247223      -13.2034458500  CLST         530          1.0000000000
      1590       530  TIP3  H2           -3.4290526820       -5.3724634115      -13.2090105488  CLST         530          1.0000000000
      1591       531  TIP3  OH2         -11.6518167374       -0.2962614914       10.3988407953  CLST         531          1.0000000000
      1592       531  TIP3  H1          -12.3874402701       -0.3278424089       10.9692004494  CLST         531          1.0000000000
      1593       531  TIP3  H2          -11.8585130305       -0.9204806036        9.6628376306  CLST         531          1.0000000000
      1594       532  TIP3  OH2         -12.1434824213       -3.0935515946       -8.8125623843  CLST         532          1.0000000000
      1595       532  TIP3  H1          -12.3650828463       -3.9995304899       -8.7232858929  CLST         532          1.0000000000
      1596       532  TIP3  H2          -12.1106253485       -3.0631130934       -9.9334174843  CLST         532          1.0000000000
      1597       533  TIP3  OH2          -2.9777258925       -7.2510300354        8.5279428140  CLST         533          1.0000000000
      1598       533  TIP3  H1           -2.3754731183       -7.9156986136        8.1380430890  CLST         533          1.0000000000
      1599       533  TIP3  H2           -2.4978035032       -6.4301255343        8.1828476200  CLST         533          1.0000000000
      1600       534  TIP3  OH2           0.5052447313      -13.2654943741       -7.6205300732  CLST         534          1.0000000000
      1601       534  TIP3  H1            0.6141272584      -12.9408288270       -8.5164160032  CLST         534          1.0000000000
      1602       534  TIP3  H2            1.4502074667      -13.2460741619       -7.3040477040  CLST         534          1.0000000000
      1603       535  TIP3  OH2           2.7855524282        3.2134272365       -7.5170034319  CLST         535          1.0000000000
      1604       535  TIP3  H1            3.2781984785        2.5371643266       -6.8777564614  CLST         535          1.0000000000
      1605       535  TIP3  H2            1.9747033118        3.2839753084       -6.8986781779  CLST         535          1.0000000000
      1606       536  TIP3  OH2           7.9716373050      -12.7542770395       -3.4465193266  CLST         536          1.0000000000
      1607       536  TIP3  H1            7.4419630442      -12.6350683564       -4.3082579917  CLST         536          1.0000000000
      1608       536  TIP3  H2            8.5408057007      -13.4058945355       -3.6206858470  CLST         536          1.0000000000
      1609       537  TIP3  OH2          11.9079681328       -2.7113530029       -7.5790669478  CLST         537          1.0000000000
      1610       537  TIP3  H1           11.1488704618       -2.0830188442       -7.6118925274  CLST         537          1.0000000000
      1611       537  TIP3  H2           12.4189947625       -2.2140268110       -6.8945721554  CLST         537          1.0000000000
      1612       538  TIP3  OH2          -5.1789092715      -11.0170262988        0.7859663676  CLST         538          1.0000000000
      1613       538  TIP3  H1           -4.4517537654      -11.3194721585        1.4406978304  CLST         538          1.0000000000
      1614       538  TIP3  H2           -4.9201873587      -10.0270455042        0.9335218125  CLST         538          1.0000000000
      1615       539  TIP3  OH2           2.4229272719       -5.0649679958        0.7609857547  CLST         539          1.0000000000
      1616       539  TIP3  H1            1.5392102261       -5.2859329807        1.1633154387  CLST         539          1.0000000000
      1617       539  TIP3  H2            2.1605322524       -5.6156821098       -0.0392455432  CLST         539          1.0000000000
      1618       540  TIP3  OH2           3.9384812258       -6.7976302207        4.6933232001  CLST         540          1.0000000000
      1619       540  TIP3  H1            3.7352228212       -7.7515248376        4.8159901156  CLST         540          1.0000000000
      1620       540  TIP3  H2            4.1971716054       -6.8225354475        3.7377248916  CLST         540          1.0000000000
      1621       541  TIP3  OH2          -5.5301133461       10.5283494910        2.3297867840  CLST         541          1.0000000000
      1622       541  TIP3  H1           -6.2248599065       10.5878296087        3.0356569749  CLST         541          1.0000000000
      1623       541  TIP3  H2           -4.9057385002       11.2555387835        2.4469766192  CLST         541          1.0000000000
      1624       542  TIP3  OH2         -10.9484907892       14.3078821941        5.4563215574  CLST         542          1.0000000000
      1625       542  TIP3  H1          -11.0362463112       15.2238459423        5.2234213933  CLST         542          1.0000000000
      1626       542  TIP3  H2          -10.5577859091       13.9365735292        4.6234353672  CLST         542          1.0000000000
      1627       543  TIP3  OH2         -10.7651848016       11.5583825894       -2.4591205790  CLST         543          1.0000000000
      1628       543  TIP3  H1          -11.2694642865       10.7882758807       -2.7628461270  CLST         543          1.0000000000
      1629       543  TIP3  H2          -10.7544208503       12.0302220204       -3.2970181432  CLST         543          1.0000000000
      1630       544  TIP3  OH2          -0.4430705687        5.5039856247       -5.6390641071  CLST         544          1.0000000000
      1631       544  TIP3  H1           -0.2494282913        4.9744921576       -6.4979237735  CLST         544          1.0000000000
      1632       544  TIP3  H2            0.3276656990        5.2425413658       -5.1205311736  CLST         544          1.0000000000
      1633       545  TIP3  OH2          -7.9232878440        2.5398593482      -12.5354624304  CLST         545          1.0000000000
      1634       545  TIP3  H1           -8.0892758340        2.1304308837      -13.4685231059  CLST         545          1.0000000000
      1635       545  TIP3  H2           -8.6585697972        3.2282799978      -12.5811274141  CLST         545          1.0000000000
      1636       546  TIP3  OH2           3.9089491813       11.1901309686       -2.1811250398  CLST         546          1.0000000000
      1637       546  TIP3  H1            3.4589109679       10.3232100775       -2.1617599525  CLST         546          1.0000000000
      1638       546  TIP3  H2            4.5722455196       10.9864574577       -1.3970535596  CLST         546          1.0000000000
      1639       547  TIP3  OH2          -3.5336849257       -2.1611902534      -11.0068140049  CLST         547          1.0000000000
      1640       547  TIP3  H1           -3.5209327808       -2.0737527723      -10.0201248409  CLST         547          1.0000000000
      1641       547  TIP3  H2           -3.8506189992       -1.2415454757      -11.1032764333  CLST         547          1.0000000000
      1642       548  TIP3  OH2          10.6654022124        2.4407741349        1.3471094957  CLST         548          1.0000000000
      1643       548  TIP3  H1            9.8760320332        1.9412401786        1.6903265380  CLST         548          1.0000000000
      1644       548  TIP3  H2           10.4378441806        3.2917524611        1.8829921253  CLST         548          1.0000000000
