* Geometry rescue: EQUI at step 15000
*
        1644  EXT
         1         1  TIP3  OH2           4.4447446394       -1.4824165802       -2.3375876376  CLST           1          1.0000000000
         2         1  TIP3  H1            4.7635341820       -1.5715426354       -1.3939075447  CLST           1          1.0000000000
         3         1  TIP3  H2            5.2146552213       -1.9350656537       -2.7627999965  CLST           1          1.0000000000
         4         2  TIP3  OH2          10.6886899543        7.5351715334      -11.7211502296  CLST           2          1.0000000000
         5         2  TIP3  H1           11.1292834697        7.3968914049      -10.8578833303  CLST           2          1.0000000000
         6         2  TIP3  H2            9.7824602452        7.2770634151      -11.4595344505  CLST           2          1.0000000000
         7         3  TIP3  OH2           8.7047723013        5.2366151412       -4.1446333164  CLST           3          1.0000000000
         8         3  TIP3  H1            8.9881925261        5.5238690708       -3.2266525277  CLST           3          1.0000000000
         9         3  TIP3  H2            8.5488585195        6.1119870867       -4.5886783930  CLST           3          1.0000000000
        10         4  TIP3  OH2          -2.8832093625        6.7087784036       10.1303756811  CLST           4          1.0000000000
        11         4  TIP3  H1           -3.5681621574        7.0204991558        9.4409631624  CLST           4          1.0000000000
        12         4  TIP3  H2           -3.0822895484        7.4177927519       10.6841434077  CLST           4          1.0000000000
        13         5  TIP3  OH2           9.1432100935        6.3193745938       10.6892945921  CLST           5          1.0000000000
        14         5  TIP3  H1            8.6037143036        5.7510223002       11.3677437012  CLST           5          1.0000000000
        15         5  TIP3  H2            8.9738508173        5.7916240675        9.8771025027  CLST           5          1.0000000000
        16         6  TIP3  OH2          10.6298388666       -5.9783932066      -11.6920550381  CLST           6          1.0000000000
        17         6  TIP3  H1           11.0798112599       -5.5456597248      -10.9056155871  CLST           6          1.0000000000
        18         6  TIP3  H2           10.7400137906       -5.1805769310      -12.3136049074  CLST           6          1.0000000000
        19         7  TIP3  OH2         -12.4963877563        8.2664590636        5.9671045565  CLST           7          1.0000000000
        20         7  TIP3  H1          -12.9502084686        9.0597806971        6.2840613391  CLST           7          1.0000000000
        21         7  TIP3  H2          -11.7039748766        8.3579242355        6.5553720234  CLST           7          1.0000000000
        22         8  TIP3  OH2          -4.6261494188       -8.5027831596        0.6434018334  CLST           8          1.0000000000
        23         8  TIP3  H1           -5.0321177107       -7.9690380739        1.4262633957  CLST           8          1.0000000000
        24         8  TIP3  H2           -3.8995135213       -7.9039901285        0.4586839058  CLST           8          1.0000000000
        25         9  TIP3  OH2           2.9244455076      -14.0357018579       -4.0725629652  CLST           9          1.0000000000
        26         9  TIP3  H1            2.0023421334      -14.1368192883       -3.7923255872  CLST           9          1.0000000000
        27         9  TIP3  H2            3.3387695826      -13.8891008695       -3.2169265721  CLST           9          1.0000000000
        28        10  TIP3  OH2         -14.1858649797       -1.2255543626       -0.3960425147  CLST          10          1.0000000000
        29        10  TIP3  H1          -13.6388023356       -1.5162202613       -1.2583138802  CLST          10          1.0000000000
        30        10  TIP3  H2          -14.8029234744       -1.8158471339       -0.2499188982  CLST          10          1.0000000000
        31        11  TIP3  OH2           7.0589350302        6.8188387410       -1.9765150653  CLST          11          1.0000000000
        32        11  TIP3  H1            7.4564907401        5.9624749165       -1.7835713650  CLST          11          1.0000000000
        33        11  TIP3  H2            6.9065326698        6.8118511519       -2.9603488667  CLST          11          1.0000000000
        34        12  TIP3  OH2          -8.1888373619        2.4709468449        1.8688178442  CLST          12          1.0000000000
        35        12  TIP3  H1           -7.6422012932        2.7457420543        1.0493720009  CLST          12          1.0000000000
        36        12  TIP3  H2           -9.0829723814        2.6086519827        1.3643451964  CLST          12          1.0000000000
        37        13  TIP3  OH2           7.8009153703        2.3772725782        2.1948843637  CLST          13          1.0000000000
        38        13  TIP3  H1            7.6767434235        3.2345532965        1.7330350646  CLST          13          1.0000000000
        39        13  TIP3  H2            7.6594404751        2.6504832159        3.1209315372  CLST          13          1.0000000000
        40        14  TIP3  OH2          -0.4029443376        2.1909124250        7.7481496149  CLST          14          1.0000000000
        41        14  TIP3  H1            0.0148377942        3.0929492112        7.4929766728  CLST          14          1.0000000000
        42        14  TIP3  H2            0.2904587581        1.6371735403        7.3391792625  CLST          14          1.0000000000
        43        15  TIP3  OH2          -8.7709155310       -3.8252370764      -12.7698956947  CLST          15          1.0000000000
        44        15  TIP3  H1           -7.8964622346       -3.8370860750      -13.2449867291  CLST          15          1.0000000000
        45        15  TIP3  H2           -8.3707685490       -4.4931722817      -12.0929542247  CLST          15          1.0000000000
        46        16  TIP3  OH2          -3.9982279784      -12.9266838195       -6.1161269187  CLST          16          1.0000000000
        47        16  TIP3  H1           -4.3889838266      -12.7456547888       -5.1966239443  CLST          16          1.0000000000
        48        16  TIP3  H2           -3.0687612724      -12.8619263204       -5.7598225240  CLST          16          1.0000000000
        49        17  TIP3  OH2           4.8927300792      -13.3154312104       -8.5637611038  CLST          17          1.0000000000
        50        17  TIP3  H1            5.6066334932      -13.4283724946       -7.9483913977  CLST          17          1.0000000000
        51        17  TIP3  H2            4.1503038663      -13.4723692726       -7.8425021582  CLST          17          1.0000000000
        52        18  TIP3  OH2         -11.6431048475       -6.8553656132       -1.4896424255  CLST          18          1.0000000000
        53        18  TIP3  H1          -12.1835865432       -6.0622607888       -1.7257126308  CLST          18          1.0000000000
        54        18  TIP3  H2          -11.6289895115       -7.1716183210       -2.4637526155  CLST          18          1.0000000000
        55        19  TIP3  OH2          10.9998169271       -0.0758819335        9.4903668217  CLST          19          1.0000000000
        56        19  TIP3  H1           10.5302255941       -0.8764022904        9.6394384487  CLST          19          1.0000000000
        57        19  TIP3  H2           11.1789791593       -0.3330803559        8.5183516602  CLST          19          1.0000000000
        58        20  TIP3  OH2         -13.3590607404        1.3961362582        2.8411485085  CLST          20          1.0000000000
        59        20  TIP3  H1          -12.9594964700        1.2012139435        1.9812713182  CLST          20          1.0000000000
        60        20  TIP3  H2          -14.2886895307        1.5713848727        2.5284373910  CLST          20          1.0000000000
        61        21  TIP3  OH2         -10.2404186523       12.4032096073       -5.3830296455  CLST          21          1.0000000000
        62        21  TIP3  H1          -10.0840605194       13.2350382749       -5.7383968405  CLST          21          1.0000000000
        63        21  TIP3  H2           -9.5137027097       12.0506839624       -5.9346985867  CLST          21          1.0000000000
        64        22  TIP3  OH2           2.9375942272       12.0996884613       -6.5020201966  CLST          22          1.0000000000
        65        22  TIP3  H1            3.4331844266       11.3374326401       -6.1275148039  CLST          22          1.0000000000
        66        22  TIP3  H2            3.1641011431       12.7211667613       -5.6970756790  CLST          22          1.0000000000
        67        23  TIP3  OH2           5.6544546010       -1.7427997553       11.6609750105  CLST          23          1.0000000000
        68        23  TIP3  H1            5.6313953351       -2.2644567003       10.8356774737  CLST          23          1.0000000000
        69        23  TIP3  H2            5.2403144025       -0.9009242361       11.3065631933  CLST          23          1.0000000000
        70        24  TIP3  OH2          -0.2581830205        1.0091785790        4.6179401317  CLST          24          1.0000000000
        71        24  TIP3  H1            0.6430174927        0.9919099284        4.8731382910  CLST          24          1.0000000000
        72        24  TIP3  H2           -0.7922923269        0.3294385979        5.1071998666  CLST          24          1.0000000000
        73        25  TIP3  OH2           3.0806640922        2.0740618299       -2.6663998885  CLST          25          1.0000000000
        74        25  TIP3  H1            3.3136705502        1.6409632334       -1.8454431595  CLST          25          1.0000000000
        75        25  TIP3  H2            3.5834728363        2.9419268287       -2.4568144303  CLST          25          1.0000000000
        76        26  TIP3  OH2          11.3114773125        5.3887915512       -6.6618548744  CLST          26          1.0000000000
        77        26  TIP3  H1           10.3936818312        5.1164870595       -6.9785741813  CLST          26          1.0000000000
        78        26  TIP3  H2           11.1070734514        6.2373331292       -6.1529674324  CLST          26          1.0000000000
        79        27  TIP3  OH2         -10.2176871872        7.2848926036       -5.4244925843  CLST          27          1.0000000000
        80        27  TIP3  H1          -10.2352203310        7.8062687698       -4.5474431562  CLST          27          1.0000000000
        81        27  TIP3  H2          -11.0560421478        7.4003168129       -5.7419450164  CLST          27          1.0000000000
        82        28  TIP3  OH2          -4.1642379832      -10.3109481435       -6.9752985228  CLST          28          1.0000000000
        83        28  TIP3  H1           -4.1019880651      -11.2880485619       -6.7421904017  CLST          28          1.0000000000
        84        28  TIP3  H2           -4.9939068014      -10.1090377175       -6.4765060375  CLST          28          1.0000000000
        85        29  TIP3  OH2         -10.6444141443        7.5896130848       -2.6056558003  CLST          29          1.0000000000
        86        29  TIP3  H1          -10.0259407559        8.6544991231       -1.7436580956  CLST          29          1.0000000000
        87        29  TIP3  H2          -12.0102494162        8.6909833020       -2.7282800922  CLST          29          1.0000000000
        88        30  TIP3  OH2           8.7358328295      -10.4857342870       -2.1243092837  CLST          30          1.0000000000
        89        30  TIP3  H1            9.4026679951      -10.8798756768       -1.4447992857  CLST          30          1.0000000000
        90        30  TIP3  H2            8.4878451125      -11.4630557295       -2.6134994626  CLST          30          1.0000000000
        91        31  TIP3  OH2          -9.7761331379       -1.3322569334      -13.1355647893  CLST          31          1.0000000000
        92        31  TIP3  H1           -9.5797984319       -2.2943771453      -12.9612705947  CLST          31          1.0000000000
        93        31  TIP3  H2           -9.7835388662       -1.0582647736      -12.2148967609  CLST          31          1.0000000000
        94        32  TIP3  OH2          -8.6860075521       -6.5669488015        7.1531627687  CLST          32          1.0000000000
        95        32  TIP3  H1           -9.5523394984       -6.4268076630        7.6415007227  CLST          32          1.0000000000
        96        32  TIP3  H2           -8.5015379047       -5.7868796946        6.5787737490  CLST          32          1.0000000000
        97        33  TIP3  OH2          11.6641275271       -8.8206730672        8.7816847739  CLST          33          1.0000000000
        98        33  TIP3  H1           11.6947537822       -9.7826778558        8.8998708652  CLST          33          1.0000000000
        99        33  TIP3  H2           11.3737864379       -8.5405699054        9.6445685457  CLST          33          1.0000000000
       100        34  TIP3  OH2           3.9928290322       -3.8477985291        2.7762992194  CLST          34          1.0000000000
       101        34  TIP3  H1            3.3608831216       -3.9754632796        2.0219186258  CLST          34          1.0000000000
       102        34  TIP3  H2            4.2403690568       -4.7614726642        2.9797326967  CLST          34          1.0000000000
       103        35  TIP3  OH2           6.2240633873       -0.7902429198        4.3157081799  CLST          35          1.0000000000
       104        35  TIP3  H1            5.3547388285       -1.1158689804        4.6331754441  CLST          35          1.0000000000
       105        35  TIP3  H2            6.4904689723       -0.2219634326        5.0805055019  CLST          35          1.0000000000
       106        36  TIP3  OH2          -1.5540883189        1.4337388255        2.2763759138  CLST          36          1.0000000000
       107        36  TIP3  H1           -2.4231543306        1.0763938185        2.2362343873  CLST          36          1.0000000000
       108        36  TIP3  H2           -1.2507777467        1.1408084586        3.1376293650  CLST          36          1.0000000000
       109        37  TIP3  OH2          -4.3421555965       -8.1859168386      -13.1417667780  CLST          37          1.0000000000
       110        37  TIP3  H1           -4.8515888429       -8.5005498836      -12.3922846661  CLST          37          1.0000000000
       111        37  TIP3  H2           -3.8702258782       -8.9716407851      -13.4798257307  CLST          37          1.0000000000
       112        38  TIP3  OH2          -3.0503378021        1.8982138572       -4.4724134892  CLST          38          1.0000000000
       113        38  TIP3  H1           -3.1514313927        2.8680542156       -4.4684294736  CLST          38          1.0000000000
       114        38  TIP3  H2           -3.6340002259        1.7700150486       -5.2711282121  CLST          38          1.0000000000
       115        39  TIP3  OH2           1.6503782599      -10.8411271242        2.1265439000  CLST          39          1.0000000000
       116        39  TIP3  H1            1.4025202742      -11.3871381494        2.8993083368  CLST          39          1.0000000000
       117        39  TIP3  H2            0.7302303434      -10.5472729625        1.8559502845  CLST          39          1.0000000000
       118        40  TIP3  OH2          -7.0344861989       12.3290934825        8.1556575434  CLST          40          1.0000000000
       119        40  TIP3  H1           -8.0013245286       12.4931535331        7.8766467822  CLST          40          1.0000000000
       120        40  TIP3  H2           -6.5617659479       12.6949685208        7.3765902569  CLST          40          1.0000000000
       121        41  TIP3  OH2           9.6988447271       -2.3330060529      -11.0682135525  CLST          41          1.0000000000
       122        41  TIP3  H1            9.0626607203       -2.9618232454      -10.7061479498  CLST          41          1.0000000000
       123        41  TIP3  H2            9.2745956653       -1.4725130834      -10.8100743381  CLST          41          1.0000000000
       124        42  TIP3  OH2           9.5977596740       10.3055414680      -10.6833140608  CLST          42          1.0000000000
       125        42  TIP3  H1           10.4587183618       10.2577672094      -10.1531819327  CLST          42          1.0000000000
       126        42  TIP3  H2           10.0556978132       10.2654218300      -11.5763510520  CLST          42          1.0000000000
       127        43  TIP3  OH2          11.9271302567       12.7222835216        7.6561989025  CLST          43          1.0000000000
       128        43  TIP3  H1           12.5791708244       13.4007608462        7.8019912927  CLST          43          1.0000000000
       129        43  TIP3  H2           12.4424578750       11.9419236560        8.0492803165  CLST          43          1.0000000000
       130        44  TIP3  OH2           7.7317905297        1.0553263432        5.9185120549  CLST          44          1.0000000000
       131        44  TIP3  H1            7.8919142648        1.4367524510        6.8531018830  CLST          44          1.0000000000
       132        44  TIP3  H2            7.4137850536        1.9842759070        5.5565221675  CLST          44          1.0000000000
       133        45  TIP3  OH2           7.7792704643        9.5368167003        7.3721270839  CLST          45          1.0000000000
       134        45  TIP3  H1            7.8348084034        8.5789517554        7.4995230811  CLST          45          1.0000000000
       135        45  TIP3  H2            8.6690721803        9.8332984298        7.6274807903  CLST          45          1.0000000000
       136        46  TIP3  OH2          -5.5828776971       -3.1092681003      -12.8809968792  CLST          46          1.0000000000
       137        46  TIP3  H1           -5.3733142727       -4.0550178955      -13.1530952451  CLST          46          1.0000000000
       138        46  TIP3  H2           -4.8443741695       -3.0249340399      -12.2486246396  CLST          46          1.0000000000
       139        47  TIP3  OH2           1.1935916317       -6.5754142525      -10.9512476588  CLST          47          1.0000000000
       140        47  TIP3  H1            1.3976160621       -5.6398526520      -10.6981610176  CLST          47          1.0000000000
       141        47  TIP3  H2            1.4881334105       -6.5128237314      -11.8733591679  CLST          47          1.0000000000
       142        48  TIP3  OH2           5.0699615161        5.5322114001        1.1492375832  CLST          48          1.0000000000
       143        48  TIP3  H1            5.9939309547        5.2056531365        0.9045407991  CLST          48          1.0000000000
       144        48  TIP3  H2            5.2828586755        6.4982042105        0.9640224663  CLST          48          1.0000000000
       145        49  TIP3  OH2          -3.1419078731      -10.5952806680      -13.6362108224  CLST          49          1.0000000000
       146        49  TIP3  H1           -2.2617845948      -10.8180678981      -13.5792193048  CLST          49          1.0000000000
       147        49  TIP3  H2           -3.6594659304      -11.1586520448      -13.0583746270  CLST          49          1.0000000000
       148        50  TIP3  OH2           2.7691868689        3.9809758942        6.0157558520  CLST          50          1.0000000000
       149        50  TIP3  H1            1.8508970768        4.2315515684        6.3877104320  CLST          50          1.0000000000
       150        50  TIP3  H2            2.4789439666        3.8054931666        5.0804871025  CLST          50          1.0000000000
       151        51  TIP3  OH2          -6.4345680486       -9.9034023793       -4.6625046318  CLST          51          1.0000000000
       152        51  TIP3  H1           -6.6358081117       -9.8039146503       -3.6501169103  CLST          51          1.0000000000
       153        51  TIP3  H2           -5.8756374128      -10.7499728562       -4.5059265110  CLST          51          1.0000000000
       154        52  TIP3  OH2           9.1382496263       -5.6740335594       -0.0869030805  CLST          52          1.0000000000
       155        52  TIP3  H1            9.4456022378       -5.6089251780       -1.0460173224  CLST          52          1.0000000000
       156        52  TIP3  H2            9.1692384442       -4.6695927059        0.0752070040  CLST          52          1.0000000000
       157        53  TIP3  OH2          -9.6887634284        9.9593161649      -12.3679455742  CLST          53          1.0000000000
       158        53  TIP3  H1           -9.8614864964       10.5871769905      -13.0134207355  CLST          53          1.0000000000
       159        53  TIP3  H2           -8.4020063860        9.2557673894      -12.5740676252  CLST          53          1.0000000000
       160        54  TIP3  OH2           0.5079210460       -3.1217028410       -9.5349720842  CLST          54          1.0000000000
       161        54  TIP3  H1            1.2378645549       -3.2500537489      -10.1797172099  CLST          54          1.0000000000
       162        54  TIP3  H2           -0.0564615881       -2.5862967498      -10.2107862291  CLST          54          1.0000000000
       163        55  TIP3  OH2           3.1340060894       -3.9454003829      -14.6380786479  CLST          55          1.0000000000
       164        55  TIP3  H1            3.1451126788       -4.8684097565      -14.2221180455  CLST          55          1.0000000000
       165        55  TIP3  H2            3.4735395314       -4.3086865266      -15.4749904631  CLST          55          1.0000000000
       166        56  TIP3  OH2          -9.9652245246       11.1162420099        5.5559873191  CLST          56          1.0000000000
       167        56  TIP3  H1          -10.1767422767       10.2708251783        5.9852368303  CLST          56          1.0000000000
       168        56  TIP3  H2          -10.3555455108       10.9550596580        4.6684707176  CLST          56          1.0000000000
       169        57  TIP3  OH2           1.6195824007      -13.2233704120        0.3576675871  CLST          57          1.0000000000
       170        57  TIP3  H1            1.8845733405      -12.7288769870        1.1366477052  CLST          57          1.0000000000
       171        57  TIP3  H2            2.2918280068      -12.8875869013       -0.2950453133  CLST          57          1.0000000000
       172        58  TIP3  OH2         -13.0527812684       10.6477861981        7.0837469419  CLST          58          1.0000000000
       173        58  TIP3  H1          -12.4269982558       11.3426493433        6.8172413217  CLST          58          1.0000000000
       174        58  TIP3  H2          -12.7357216650       10.5282541302        8.0654596794  CLST          58          1.0000000000
       175        59  TIP3  OH2         -11.6433714863       -2.4745031480        5.4307020024  CLST          59          1.0000000000
       176        59  TIP3  H1          -11.7054235839       -2.1055776740        6.3224380253  CLST          59          1.0000000000
       177        59  TIP3  H2          -11.7466696519       -1.6169546841        4.9436400989  CLST          59          1.0000000000
       178        60  TIP3  OH2           1.4351357809        9.6175664955        8.5962793719  CLST          60          1.0000000000
       179        60  TIP3  H1            0.7268432903        9.0730307093        8.1581509793  CLST          60          1.0000000000
       180        60  TIP3  H2            1.9485487860        8.8705779495        8.9195295457  CLST          60          1.0000000000
       181        61  TIP3  OH2           2.7311514546       -0.7903971202       -5.4477757228  CLST          61          1.0000000000
       182        61  TIP3  H1            3.1186842168       -1.7113006988       -5.2675374420  CLST          61          1.0000000000
       183        61  TIP3  H2            2.0824727770       -1.0755755547       -6.1909386969  CLST          61          1.0000000000
       184        62  TIP3  OH2           8.0660665294        8.4010059084       12.5373657032  CLST          62          1.0000000000
       185        62  TIP3  H1            8.2326805011        7.7230983801       11.8443258771  CLST          62          1.0000000000
       186        62  TIP3  H2            8.2634443929        9.2191696755       12.0422495324  CLST          62          1.0000000000
       187        63  TIP3  OH2           4.6898082636       -7.0254550279      -10.2437722197  CLST          63          1.0000000000
       188        63  TIP3  H1            3.7802526033       -7.1566806879      -10.5488433529  CLST          63          1.0000000000
       189        63  TIP3  H2            5.1610664948       -7.4626138772      -11.0422442924  CLST          63          1.0000000000
       190        64  TIP3  OH2          -2.3136080935       11.5742214150        5.2151277813  CLST          64          1.0000000000
       191        64  TIP3  H1           -2.3713069876       10.2038506114        5.1914783830  CLST          64          1.0000000000
       192        64  TIP3  H2           -1.5559827035       11.6172292054        6.3400087827  CLST          64          1.0000000000
       193        65  TIP3  OH2          11.0527148082       -4.3891566227       -5.2295494241  CLST          65          1.0000000000
       194        65  TIP3  H1           11.1650817662       -4.0001663048       -6.0949654689  CLST          65          1.0000000000
       195        65  TIP3  H2           11.6193500102       -3.7128659482       -4.7862298514  CLST          65          1.0000000000
       196        66  TIP3  OH2           6.1967154373       -9.9347917589        9.3868880654  CLST          66          1.0000000000
       197        66  TIP3  H1            5.5108933522       -9.8932301709        8.6342674574  CLST          66          1.0000000000
       198        66  TIP3  H2            6.6447921543       -9.1265015868        9.0129189816  CLST          66          1.0000000000
       199        67  TIP3  OH2         -11.4759656455       -7.5377657518       -4.0375775679  CLST          67          1.0000000000
       200        67  TIP3  H1          -10.6033903403       -7.3423383882       -4.3613661463  CLST          67          1.0000000000
       201        67  TIP3  H2          -11.9967096714       -7.9414192277       -4.6767083012  CLST          67          1.0000000000
       202        68  TIP3  OH2          -0.7259887639       -5.4598133316        5.4129392097  CLST          68          1.0000000000
       203        68  TIP3  H1            0.2488897697       -5.4272642348        5.5062395596  CLST          68          1.0000000000
       204        68  TIP3  H2           -1.0000318943       -5.3707053003        6.3443862607  CLST          68          1.0000000000
       205        69  TIP3  OH2           7.9568459924       11.5834576099       -8.7238227909  CLST          69          1.0000000000
       206        69  TIP3  H1            8.2933543097       11.3405933600       -9.6499461529  CLST          69          1.0000000000
       207        69  TIP3  H2            8.8766644372       11.7280596911       -8.3217540329  CLST          69          1.0000000000
       208        70  TIP3  OH2          -0.8602724390      -12.3799568532       -0.5849283547  CLST          70          1.0000000000
       209        70  TIP3  H1            0.1327599617      -12.4226225402       -0.4962570717  CLST          70          1.0000000000
       210        70  TIP3  H2           -1.0287050496      -12.5960579830        0.3550808474  CLST          70          1.0000000000
       211        71  TIP3  OH2         -10.4293866892       -7.3648210932        2.2390547987  CLST          71          1.0000000000
       212        71  TIP3  H1          -11.1706675303       -6.8300711931        2.5654902809  CLST          71          1.0000000000
       213        71  TIP3  H2          -10.6861538312       -7.9104641707        1.4971510530  CLST          71          1.0000000000
       214        72  TIP3  OH2           0.1469138009        1.9951976452       -1.5659137660  CLST          72          1.0000000000
       215        72  TIP3  H1           -0.1872573176        1.0865386919       -1.5335481782  CLST          72          1.0000000000
       216        72  TIP3  H2            0.7746057368        1.9271853472       -2.3197964235  CLST          72          1.0000000000
       217        73  TIP3  OH2          -9.5549058574       12.9291783719        7.4420340946  CLST          73          1.0000000000
       218        73  TIP3  H1           -9.7429072601       12.2616465782        6.7293371918  CLST          73          1.0000000000
       219        73  TIP3  H2           -9.9957962081       13.6500993499        6.9563145285  CLST          73          1.0000000000
       220        74  TIP3  OH2           6.4087715042       -2.5836483544       -3.7275252002  CLST          74          1.0000000000
       221        74  TIP3  H1            6.5860974053       -3.4438147412       -4.1203324393  CLST          74          1.0000000000
       222        74  TIP3  H2            7.3336762583       -2.2579438812       -3.6235236691  CLST          74          1.0000000000
       223        75  TIP3  OH2           2.9186689358      -13.1731232072       -6.6788563933  CLST          75          1.0000000000
       224        75  TIP3  H1            3.2235738399      -12.2796282890       -6.3897698435  CLST          75          1.0000000000
       225        75  TIP3  H2            3.0187042603      -13.5807520304       -5.7290403781  CLST          75          1.0000000000
       226        76  TIP3  OH2           3.9013499387       -9.6585542870        1.1182816616  CLST          76          1.0000000000
       227        76  TIP3  H1            3.8312066694       -8.7682515293        1.4936225066  CLST          76          1.0000000000
       228        76  TIP3  H2            3.1424489816      -10.1251319364        1.5293392396  CLST          76          1.0000000000
       229        77  TIP3  OH2          10.1990950233       -8.3082038565       -2.6995896035  CLST          77          1.0000000000
       230        77  TIP3  H1            9.7365754242       -9.1929775262       -2.6678694010  CLST          77          1.0000000000
       231        77  TIP3  H2           10.1149986858       -8.1284980679       -3.6430198991  CLST          77          1.0000000000
       232        78  TIP3  OH2          10.7749817455       11.5605864454       -7.6297589605  CLST          78          1.0000000000
       233        78  TIP3  H1           11.2753275750       10.8978233415       -8.1696602584  CLST          78          1.0000000000
       234        78  TIP3  H2           11.4565846703       12.0781870476       -7.3603574277  CLST          78          1.0000000000
       235        79  TIP3  OH2          12.7909775802        0.9352271484        1.2478989511  CLST          79          1.0000000000
       236        79  TIP3  H1           13.3592661319        0.8932449917        1.8870065473  CLST          79          1.0000000000
       237        79  TIP3  H2           12.1343815427        1.6400749258        1.4609627796  CLST          79          1.0000000000
       238        80  TIP3  OH2          -7.4807118869        0.0998179027        6.7751919641  CLST          80          1.0000000000
       239        80  TIP3  H1           -7.4725440942        0.0627824449        5.7956933851  CLST          80          1.0000000000
       240        80  TIP3  H2           -6.5004612652       -0.0453232026        6.9166107904  CLST          80          1.0000000000
       241        81  TIP3  OH2          -7.4308113631      -10.9910014997        2.2397449650  CLST          81          1.0000000000
       242        81  TIP3  H1           -6.6245302586      -11.1518033610        1.7419173289  CLST          81          1.0000000000
       243        81  TIP3  H2           -7.1450603235      -11.1738143471        3.1965684681  CLST          81          1.0000000000
       244        82  TIP3  OH2          -1.5861723718       -9.9580656091       -6.5007388755  CLST          82          1.0000000000
       245        82  TIP3  H1           -2.5492968221       -9.9305376562       -6.6171343720  CLST          82          1.0000000000
       246        82  TIP3  H2           -1.4708718290      -10.7797159356       -5.9495197308  CLST          82          1.0000000000
       247        83  TIP3  OH2          12.1976731243       -8.8332463743        1.6353042730  CLST          83          1.0000000000
       248        83  TIP3  H1           12.6636206259       -8.0676370582        2.2743922363  CLST          83          1.0000000000
       249        83  TIP3  H2           11.2107683076       -8.4974196570        1.5363887093  CLST          83          1.0000000000
       250        84  TIP3  OH2          -4.3523735692       10.5670054285       -2.3970043198  CLST          84          1.0000000000
       251        84  TIP3  H1           -5.2822001440       10.5596080383       -2.7593129205  CLST          84          1.0000000000
       252        84  TIP3  H2           -4.2065745483       11.5028168508       -2.2951225058  CLST          84          1.0000000000
       253        85  TIP3  OH2           5.9927229656       -2.0649593706        0.1133995742  CLST          85          1.0000000000
       254        85  TIP3  H1            6.2245214699       -1.5443036783        0.9102672761  CLST          85          1.0000000000
       255        85  TIP3  H2            6.7486608989       -2.6552613165        0.0918547808  CLST          85          1.0000000000
       256        86  TIP3  OH2           6.8047324357       -8.4319444306        5.9204031277  CLST          86          1.0000000000
       257        86  TIP3  H1            5.9321395653       -8.5136010728        6.4274009389  CLST          86          1.0000000000
       258        86  TIP3  H2            6.7341317269       -7.4598405761        5.7276594041  CLST          86          1.0000000000
       259        87  TIP3  OH2          -1.3747772488       -3.7227393923       10.5794760929  CLST          87          1.0000000000
       260        87  TIP3  H1           -0.7611570867       -4.0783474918       11.2442924411  CLST          87          1.0000000000
       261        87  TIP3  H2           -2.2141586525       -4.2406570330       10.8496688911  CLST          87          1.0000000000
       262        88  TIP3  OH2          -0.8236375192        4.3195302076       -7.9842683834  CLST          88          1.0000000000
       263        88  TIP3  H1           -1.0557984969        3.3117469333       -7.9474095964  CLST          88          1.0000000000
       264        88  TIP3  H2           -1.7844687752        4.5547903290       -8.1054499712  CLST          88          1.0000000000
       265        89  TIP3  OH2           3.3223560329        0.9185353198      -11.6935612435  CLST          89          1.0000000000
       266        89  TIP3  H1            3.4056216321        1.8281363831      -11.6897207993  CLST          89          1.0000000000
       267        89  TIP3  H2            4.0116060410        0.4320538932      -11.9615053708  CLST          89          1.0000000000
       268        90  TIP3  OH2           5.6041259861       11.2633053776       -5.5225383058  CLST          90          1.0000000000
       269        90  TIP3  H1            5.0894225495       12.1316679552       -4.7951957072  CLST          90          1.0000000000
       270        90  TIP3  H2            5.5709596613       11.8774387569       -6.3894754490  CLST          90          1.0000000000
       271        91  TIP3  OH2           5.9175847794       -7.8651879171      -12.3448005046  CLST          91          1.0000000000
       272        91  TIP3  H1            6.1393384134       -8.8682489865      -12.3683398287  CLST          91          1.0000000000
       273        91  TIP3  H2            6.8463764364       -7.5533838076      -12.1249518171  CLST          91          1.0000000000
       274        92  TIP3  OH2          10.0583115762       11.6208275695        2.5978505681  CLST          92          1.0000000000
       275        92  TIP3  H1           10.3473795865       11.7697029168        3.5456184135  CLST          92          1.0000000000
       276        92  TIP3  H2            9.8734406878       12.5779239569        2.4287946202  CLST          92          1.0000000000
       277        93  TIP3  OH2          -8.7593463006        7.3489135321        2.7603356739  CLST          93          1.0000000000
       278        93  TIP3  H1           -8.4676622302        8.2046011902        2.3484822802  CLST          93          1.0000000000
       279        93  TIP3  H2           -7.9275077373        7.0111429309        3.1180156489  CLST          93          1.0000000000
       280        94  TIP3  OH2         -14.2894205166        6.4033143024        6.4808949610  CLST          94          1.0000000000
       281        94  TIP3  H1          -13.5754770078        7.0873481683        6.2846427452  CLST          94          1.0000000000
       282        94  TIP3  H2          -14.4185432106        6.2243516398        5.4893855496  CLST          94          1.0000000000
       283        95  TIP3  OH2           9.7654000375        5.8231327770       -1.7980018060  CLST          95          1.0000000000
       284        95  TIP3  H1            9.9137446350        6.0532314615       -0.8200426954  CLST          95          1.0000000000
       285        95  TIP3  H2           10.2787230021        4.9498394277       -1.7621129981  CLST          95          1.0000000000
       286        96  TIP3  OH2           9.6050670235      -10.9675144659       11.3469520427  CLST          96          1.0000000000
       287        96  TIP3  H1           10.3841161445      -11.2737034384       10.7888363731  CLST          96          1.0000000000
       288        96  TIP3  H2            9.1651686214      -11.8721451935       11.4019680389  CLST          96          1.0000000000
       289        97  TIP3  OH2          -7.5565286663        6.7563019753        8.5368664870  CLST          97          1.0000000000
       290        97  TIP3  H1           -7.7632554160        6.0116717646        8.8354761225  CLST          97          1.0000000000
       291        97  TIP3  H2           -8.9248718536        6.0325165029        8.5297975703  CLST          97          1.0000000000
       292        98  TIP3  OH2           5.8598853284        0.5389140329       -3.5152450606  CLST          98          1.0000000000
       293        98  TIP3  H1            6.5621298522        0.4369412510       -2.8328590182  CLST          98          1.0000000000
       294        98  TIP3  H2            5.1524820618        0.0173973117       -3.0582714645  CLST          98          1.0000000000
       295        99  TIP3  OH2          -6.9007100582      -11.6121385987        4.8349126783  CLST          99          1.0000000000
       296        99  TIP3  H1           -7.2269177794      -11.3734306446        5.7237824927  CLST          99          1.0000000000
       297        99  TIP3  H2           -6.1121777262      -12.1515322905        5.0553265532  CLST          99          1.0000000000
       298       100  TIP3  OH2           2.4631286731        0.4552200690       -9.1932552075  CLST         100          1.0000000000
       299       100  TIP3  H1            2.8023306763        0.5645855784      -10.1889882523  CLST         100          1.0000000000
       300       100  TIP3  H2            2.7300533775        1.2978373144       -8.8523394804  CLST         100          1.0000000000
       301       101  TIP3  OH2          12.6602745199       -6.9133204185        3.8408421101  CLST         101          1.0000000000
       302       101  TIP3  H1           12.6239361243       -7.4375278208        4.6965001842  CLST         101          1.0000000000
       303       101  TIP3  H2           13.1374006223       -6.1916901453        4.2004544729  CLST         101          1.0000000000
       304       102  TIP3  OH2         -12.1085145412       10.3978263966        1.3455442838  CLST         102          1.0000000000
       305       102  TIP3  H1          -12.9162001661       10.1882205326        1.8959790051  CLST         102          1.0000000000
       306       102  TIP3  H2          -12.3393819301        9.6254195721        0.7119059398  CLST         102          1.0000000000
       307       103  TIP3  OH2          -0.6683138773       -9.3821426526        7.6492164919  CLST         103          1.0000000000
       308       103  TIP3  H1           -0.0215699629       -9.4918158715        8.4463270768  CLST         103          1.0000000000
       309       103  TIP3  H2           -1.1822470507      -10.1898928010        7.8454363888  CLST         103          1.0000000000
       310       104  TIP3  OH2          -4.3628356699      -12.1026097945        9.9117444831  CLST         104          1.0000000000
       311       104  TIP3  H1           -4.8942950678      -11.6741347728       10.5447449795  CLST         104          1.0000000000
       312       104  TIP3  H2           -5.0619505236      -12.6279528010        9.3305791390  CLST         104          1.0000000000
       313       105  TIP3  OH2          -5.0824590528       10.5943910266      -11.4008198226  CLST         105          1.0000000000
       314       105  TIP3  H1           -4.7875145474       11.3093686136      -12.0777737894  CLST         105          1.0000000000
       315       105  TIP3  H2           -5.4166635463       10.0302591851      -12.1408629747  CLST         105          1.0000000000
       316       106  TIP3  OH2           7.3222547065       -8.1980590112       -1.5114702514  CLST         106          1.0000000000
       317       106  TIP3  H1            8.0838957215       -7.7497200338       -1.8647386620  CLST         106          1.0000000000
       318       106  TIP3  H2            7.6646039082       -9.1221228055       -1.6605918751  CLST         106          1.0000000000
       319       107  TIP3  OH2          -8.3177472605       -4.7397062859        5.1868712653  CLST         107          1.0000000000
       320       107  TIP3  H1           -8.9477756197       -4.3681185139        4.5475836657  CLST         107          1.0000000000
       321       107  TIP3  H2           -7.4238915997       -4.4973705225        4.7990861723  CLST         107          1.0000000000
       322       108  TIP3  OH2         -10.6558534992        2.1077787561        9.6330331811  CLST         108          1.0000000000
       323       108  TIP3  H1           -9.6515888356        1.9909594433        9.4690437207  CLST         108          1.0000000000
       324       108  TIP3  H2          -10.8885266561        1.2155463276        9.9668491151  CLST         108          1.0000000000
       325       109  TIP3  OH2           2.3591552460        7.0699612634        8.7912825228  CLST         109          1.0000000000
       326       109  TIP3  H1            1.5193076448        6.6270299142        9.0950472225  CLST         109          1.0000000000
       327       109  TIP3  H2            3.0587661155        6.3749472073        8.8001535887  CLST         109          1.0000000000
       328       110  TIP3  OH2           1.5641787970       12.3776473775      -11.1655332891  CLST         110          1.0000000000
       329       110  TIP3  H1            1.6104152306       13.2394821078      -11.2597222995  CLST         110          1.0000000000
       330       110  TIP3  H2            1.2987999962       12.1178586285      -10.2344968890  CLST         110          1.0000000000
       331       111  TIP3  OH2          11.8210184262      -11.6312598988        9.4449118957  CLST         111          1.0000000000
       332       111  TIP3  H1           12.7660892007      -11.7928937848        9.5158166873  CLST         111          1.0000000000
       333       111  TIP3  H2           11.5815711987      -12.2289155454        8.6973668889  CLST         111          1.0000000000
       334       112  TIP3  OH2           6.5287051307       -0.0336954744        1.7122623095  CLST         112          1.0000000000
       335       112  TIP3  H1            6.9113788391        0.8638939958        1.7548825270  CLST         112          1.0000000000
       336       112  TIP3  H2            6.4634723355       -0.2433628009        2.6782574673  CLST         112          1.0000000000
       337       113  TIP3  OH2         -13.0984674958        0.9392507589        0.1356443936  CLST         113          1.0000000000
       338       113  TIP3  H1          -13.6375918737        0.0514698397       -0.0442327606  CLST         113          1.0000000000
       339       113  TIP3  H2          -12.4580946000        0.8293491786       -0.6127009673  CLST         113          1.0000000000
       340       114  TIP3  OH2         -13.8377235607        3.6365833806       -0.3335560484  CLST         114          1.0000000000
       341       114  TIP3  H1          -13.6841142738        2.7091643793       -0.1695213455  CLST         114          1.0000000000
       342       114  TIP3  H2          -13.5219630626        3.6768343290       -1.2712231700  CLST         114          1.0000000000
       343       115  TIP3  OH2          -9.0610746015        0.3967181546      -10.7560405455  CLST         115          1.0000000000
       344       115  TIP3  H1           -8.1720507462        0.5214623454      -11.1314262155  CLST         115          1.0000000000
       345       115  TIP3  H2           -9.3261813738        1.2341232383      -11.1553017827  CLST         115          1.0000000000
       346       116  TIP3  OH2           6.8624389646       -5.6051357426        2.0068060350  CLST         116          1.0000000000
       347       116  TIP3  H1            7.4855064599       -5.8143941767        1.2415433572  CLST         116          1.0000000000
       348       116  TIP3  H2            7.0671599102       -4.6569495065        2.1108451344  CLST         116          1.0000000000
       349       117  TIP3  OH2          -0.8592921233        0.1691024998       12.7348911639  CLST         117          1.0000000000
       350       117  TIP3  H1            0.0069198844       -0.3476146202       12.8282297524  CLST         117          1.0000000000
       351       117  TIP3  H2           -1.0100219464        0.3428114311       13.6543806202  CLST         117          1.0000000000
       352       118  TIP3  OH2           0.1840608904       -9.7471447134        4.9248889111  CLST         118          1.0000000000
       353       118  TIP3  H1           -0.0456238514       -9.4578122821        5.8371297433  CLST         118          1.0000000000
       354       118  TIP3  H2           -0.0477462595       -8.8805523951        4.4620388051  CLST         118          1.0000000000
       355       119  TIP3  OH2          -9.2023152286      -10.3902038466       -8.7657743992  CLST         119          1.0000000000
       356       119  TIP3  H1           -9.4261564040      -10.7199923333       -9.7489367654  CLST         119          1.0000000000
       357       119  TIP3  H2           -8.9273432586       -9.4962511747       -8.9439029619  CLST         119          1.0000000000
       358       120  TIP3  OH2           9.6189475998       -7.9877299471        1.1436997231  CLST         120          1.0000000000
       359       120  TIP3  H1            8.8720428547       -8.6055563326        1.1321818358  CLST         120          1.0000000000
       360       120  TIP3  H2            9.3059103086       -7.3315095892        0.4436216892  CLST         120          1.0000000000
       361       121  TIP3  OH2          -5.5813136323       -0.2475839261       -8.2506026316  CLST         121          1.0000000000
       362       121  TIP3  H1           -5.5661596902       -0.0019746417       -9.2300857012  CLST         121          1.0000000000
       363       121  TIP3  H2           -4.8188298626       -0.8680388039       -8.3018836991  CLST         121          1.0000000000
       364       122  TIP3  OH2          10.2712593265       12.1179519665        5.3254096934  CLST         122          1.0000000000
       365       122  TIP3  H1            9.4441851100       12.6363536070        5.4722423165  CLST         122          1.0000000000
       366       122  TIP3  H2           10.8658854286       12.5320931330        5.9934922970  CLST         122          1.0000000000
       367       123  TIP3  OH2          -7.3654003840       -5.4872986030      -11.2448621638  CLST         123          1.0000000000
       368       123  TIP3  H1           -6.7418866366       -6.1927587186      -11.4565515279  CLST         123          1.0000000000
       369       123  TIP3  H2           -7.1419722562       -5.2985679859      -10.2925084543  CLST         123          1.0000000000
       370       124  TIP3  OH2          -6.0088466046       -8.5330345433      -10.7045248218  CLST         124          1.0000000000
       371       124  TIP3  H1           -5.2461850683       -8.8947978219      -10.1612927032  CLST         124          1.0000000000
       372       124  TIP3  H2           -6.6771771339       -8.4495200483       -9.9566326433  CLST         124          1.0000000000
       373       125  TIP3  OH2         -13.4261791552        4.0842115664        8.2367479836  CLST         125          1.0000000000
       374       125  TIP3  H1          -14.2413543873        3.2968852766        7.4623046258  CLST         125          1.0000000000
       375       125  TIP3  H2          -13.8773244429        5.1211647211        7.9003095605  CLST         125          1.0000000000
       376       126  TIP3  OH2          -7.0219351070      -10.7174173222      -12.2554955223  CLST         126          1.0000000000
       377       126  TIP3  H1           -6.0340536883      -11.0998449529      -12.1955465233  CLST         126          1.0000000000
       378       126  TIP3  H2           -6.7960817419       -9.7542071444      -12.0417647997  CLST         126          1.0000000000
       379       127  TIP3  OH2          -7.4601070135      -11.6726201997       -7.1973669711  CLST         127          1.0000000000
       380       127  TIP3  H1           -8.0105495793      -12.4502325212       -7.0436785905  CLST         127          1.0000000000
       381       127  TIP3  H2           -8.0561860745      -11.2378129039       -7.8617872772  CLST         127          1.0000000000
       382       128  TIP3  OH2          10.0852163225        0.7318759591       -2.3395711895  CLST         128          1.0000000000
       383       128  TIP3  H1            9.2234703156        0.3324746226       -2.0469429425  CLST         128          1.0000000000
       384       128  TIP3  H2            9.7811028634        1.5518015119       -2.8084219896  CLST         128          1.0000000000
       385       129  TIP3  OH2          -7.6655409013        9.4274883095        1.0784325277  CLST         129          1.0000000000
       386       129  TIP3  H1           -6.9318232182        9.8974172757        1.5512835730  CLST         129          1.0000000000
       387       129  TIP3  H2           -7.0061887523        8.7303234242        0.5009883842  CLST         129          1.0000000000
       388       130  TIP3  OH2          -4.0018577305        4.1203909433       10.0418799603  CLST         130          1.0000000000
       389       130  TIP3  H1           -3.6352409149        5.0180282200       10.1370491782  CLST         130          1.0000000000
       390       130  TIP3  H2           -3.8215193089        3.6604861554       10.9054372386  CLST         130          1.0000000000
       391       131  TIP3  OH2           7.7953979453       -3.8998840232       -9.9133055590  CLST         131          1.0000000000
       392       131  TIP3  H1            7.7507378912       -3.0977804062       -9.2695138042  CLST         131          1.0000000000
       393       131  TIP3  H2            6.8350352421       -4.1609583582       -9.6876968341  CLST         131          1.0000000000
       394       132  TIP3  OH2         -11.4206456578       11.3772204183       12.1545580432  CLST         132          1.0000000000
       395       132  TIP3  H1          -10.8455164097       12.0497635745       11.5661513020  CLST         132          1.0000000000
       396       132  TIP3  H2          -11.7589977630       11.7417669140       12.7960327819  CLST         132          1.0000000000
       397       133  TIP3  OH2          10.2932868475        9.3918894975        8.6238674783  CLST         133          1.0000000000
       398       133  TIP3  H1           10.1195096546        9.3973294153        9.5859520225  CLST         133          1.0000000000
       399       133  TIP3  H2           11.2914624118        9.4962453643        8.6885775862  CLST         133          1.0000000000
       400       134  TIP3  OH2          -7.8013590334        5.9536298573       -6.0763056631  CLST         134          1.0000000000
       401       134  TIP3  H1           -8.7816119740        6.0227587328       -6.0265095335  CLST         134          1.0000000000
       402       134  TIP3  H2           -7.6124714496        5.9771020585       -5.0830849624  CLST         134          1.0000000000
       403       135  TIP3  OH2          10.6712556905      -11.0630512999      -13.0527592558  CLST         135          1.0000000000
       404       135  TIP3  H1           10.9093342740      -10.0454731222      -12.5279252822  CLST         135          1.0000000000
       405       135  TIP3  H2           11.0131329201      -11.0834366836      -13.9606119514  CLST         135          1.0000000000
       406       136  TIP3  OH2          -4.2412565328        1.7322663939       -7.0054704024  CLST         136          1.0000000000
       407       136  TIP3  H1           -4.7363976687        0.9249838974       -7.3317180550  CLST         136          1.0000000000
       408       136  TIP3  H2           -5.0360855753        2.2898662418       -6.6829890358  CLST         136          1.0000000000
       409       137  TIP3  OH2          13.0822730520       10.0085000544        9.0319465423  CLST         137          1.0000000000
       410       137  TIP3  H1           13.5534940347       10.0311603377        9.8556331671  CLST         137          1.0000000000
       411       137  TIP3  H2           13.8384837916        9.3926817638        8.5216278413  CLST         137          1.0000000000
       412       138  TIP3  OH2          -0.9374563679       -9.9148267857        1.6834501824  CLST         138          1.0000000000
       413       138  TIP3  H1           -1.1481916997       -9.4308651876        0.8572962962  CLST         138          1.0000000000
       414       138  TIP3  H2           -1.0081561141       -9.2144673291        2.3792311940  CLST         138          1.0000000000
       415       139  TIP3  OH2          -9.6955508468      -10.7625257904        4.5126213380  CLST         139          1.0000000000
       416       139  TIP3  H1          -10.5157467306      -10.8859001452        4.0529271091  CLST         139          1.0000000000
       417       139  TIP3  H2           -9.0608178833      -11.4491084251        4.2160559614  CLST         139          1.0000000000
       418       140  TIP3  OH2          -7.0756401874        3.3578731887       -0.3688603480  CLST         140          1.0000000000
       419       140  TIP3  H1           -6.2586886352        3.8228118718       -0.2078892258  CLST         140          1.0000000000
       420       140  TIP3  H2           -7.6941178424        4.1046083405       -0.4868500709  CLST         140          1.0000000000
       421       141  TIP3  OH2           2.0071103713       -4.3585235599       -3.6748356959  CLST         141          1.0000000000
       422       141  TIP3  H1            1.7851822839       -3.4353081520       -3.3457186625  CLST         141          1.0000000000
       423       141  TIP3  H2            2.6912999957       -4.1399239567       -4.2982503545  CLST         141          1.0000000000
       424       142  TIP3  OH2         -11.7751045889        0.0831373552        4.6133781399  CLST         142          1.0000000000
       425       142  TIP3  H1          -11.5081247855        0.6752139395        5.3397824175  CLST         142          1.0000000000
       426       142  TIP3  H2          -12.5036351363        0.5206191695        4.2303202719  CLST         142          1.0000000000
       427       143  TIP3  OH2           9.4490332991       -5.6894964053       -8.3064745451  CLST         143          1.0000000000
       428       143  TIP3  H1            9.7707061600       -5.0397074280       -8.9845568829  CLST         143          1.0000000000
       429       143  TIP3  H2           10.1657580899       -6.3753370132       -8.4018454621  CLST         143          1.0000000000
       430       144  TIP3  OH2           3.3965694377       -2.8522078447        8.9993231508  CLST         144          1.0000000000
       431       144  TIP3  H1            2.4754340302       -2.4613841864        9.2693828477  CLST         144          1.0000000000
       432       144  TIP3  H2            3.8354727317       -2.0035659020        8.8039911643  CLST         144          1.0000000000
       433       145  TIP3  OH2         -10.1947932152       13.4824630418        3.0845367791  CLST         145          1.0000000000
       434       145  TIP3  H1          -10.4912624465       13.6768322041        2.1358183430  CLST         145          1.0000000000
       435       145  TIP3  H2           -9.9092452565       12.5450833257        2.9001427002  CLST         145          1.0000000000
       436       146  TIP3  OH2           9.3218008537        2.6770725268       -4.2196735892  CLST         146          1.0000000000
       437       146  TIP3  H1            9.1685585057        3.6752240288       -4.2527544260  CLST         146          1.0000000000
       438       146  TIP3  H2            8.5542238970        2.4557289339       -4.7786339160  CLST         146          1.0000000000
       439       147  TIP3  OH2         -10.9684149358       -0.3723485478       -4.1690359841  CLST         147          1.0000000000
       440       147  TIP3  H1          -10.0749151014       -0.7605275639       -4.3523056836  CLST         147          1.0000000000
       441       147  TIP3  H2          -11.3904327621       -0.6399723447       -5.0408515754  CLST         147          1.0000000000
       442       148  TIP3  OH2          -8.0424151296        1.3451264631        9.0205276975  CLST         148          1.0000000000
       443       148  TIP3  H1           -7.8661455570        0.9008596030        8.1590114648  CLST         148          1.0000000000
       444       148  TIP3  H2           -7.0899027165        1.6093507567        9.1971285982  CLST         148          1.0000000000
       445       149  TIP3  OH2           8.4648252976       -3.0807282015        0.8162835005  CLST         149          1.0000000000
       446       149  TIP3  H1            8.9749583076       -2.2404124299        0.6426372950  CLST         149          1.0000000000
       447       149  TIP3  H2            8.1969168912       -2.8247511719        1.7417568345  CLST         149          1.0000000000
       448       150  TIP3  OH2          -2.1235973782      -11.6659763159        8.4168872391  CLST         150          1.0000000000
       449       150  TIP3  H1           -2.9644343189      -11.7242181129        8.9459239457  CLST         150          1.0000000000
       450       150  TIP3  H2           -1.4794677301      -12.0550114233        9.0948768061  CLST         150          1.0000000000
       451       151  TIP3  OH2          -9.1323884692       -6.5750668936       -4.9993741073  CLST         151          1.0000000000
       452       151  TIP3  H1           -8.2415545419       -6.6450182042       -4.5447897564  CLST         151          1.0000000000
       453       151  TIP3  H2           -9.0161916022       -7.4389881627       -5.4831478900  CLST         151          1.0000000000
       454       152  TIP3  OH2           4.0168420720       -2.1841970604        5.0598310764  CLST         152          1.0000000000
       455       152  TIP3  H1            4.4549988801       -3.0295645467        5.4383247485  CLST         152          1.0000000000
       456       152  TIP3  H2            3.6046653933       -2.6130563513        4.2664014137  CLST         152          1.0000000000
       457       153  TIP3  OH2          -2.7646302484        4.9549884097      -14.0577809848  CLST         153          1.0000000000
       458       153  TIP3  H1           -1.8256412928        5.1706595381      -13.8411360317  CLST         153          1.0000000000
       459       153  TIP3  H2           -2.7530543919        4.2881477441      -13.3223345240  CLST         153          1.0000000000
       460       154  TIP3  OH2           4.4141561597       -6.6898951400        2.1336169294  CLST         154          1.0000000000
       461       154  TIP3  H1            5.3771982944       -6.4462250705        1.9975857455  CLST         154          1.0000000000
       462       154  TIP3  H2            3.9874612529       -6.2195313273        1.4114247216  CLST         154          1.0000000000
       463       155  TIP3  OH2           9.4492936994       -2.5536241441       10.0629770943  CLST         155          1.0000000000
       464       155  TIP3  H1            8.8964585900       -3.1868616152        9.5858754564  CLST         155          1.0000000000
       465       155  TIP3  H2           10.0054921393       -3.0164176925       10.5855823047  CLST         155          1.0000000000
       466       156  TIP3  OH2          -2.0942148853       11.1155777075       11.5937379961  CLST         156          1.0000000000
       467       156  TIP3  H1           -2.6899035988       11.7895637942       11.7680789587  CLST         156          1.0000000000
       468       156  TIP3  H2           -2.6860982464       10.3584614384       11.7885987713  CLST         156          1.0000000000
       469       157  TIP3  OH2           3.9540047900       -0.7484191793        7.4961582208  CLST         157          1.0000000000
       470       157  TIP3  H1            4.9125166210       -0.7830765616        7.6891710020  CLST         157          1.0000000000
       471       157  TIP3  H2            3.9327487055       -1.3596883103        6.7047846984  CLST         157          1.0000000000
       472       158  TIP3  OH2          10.6770653271        9.0824777673       13.1822453047  CLST         158          1.0000000000
       473       158  TIP3  H1            9.8642599980        8.6327190834       13.4677274170  CLST         158          1.0000000000
       474       158  TIP3  H2           10.2861304592        9.5928632737       12.4279018585  CLST         158          1.0000000000
       475       159  TIP3  OH2           0.3952821383      -12.1750939702        4.2873348979  CLST         159          1.0000000000
       476       159  TIP3  H1           -0.4790178324      -12.4070191214        4.8451652172  CLST         159          1.0000000000
       477       159  TIP3  H2            0.4226836546      -11.2341413250        4.6428634089  CLST         159          1.0000000000
       478       160  TIP3  OH2           7.4163729042       -3.6075767317        8.4383584383  CLST         160          1.0000000000
       479       160  TIP3  H1            6.9599427055       -3.7634837048        7.5391238745  CLST         160          1.0000000000
       480       160  TIP3  H2            7.0553651227       -2.6474598746        8.4907199274  CLST         160          1.0000000000
       481       161  TIP3  OH2          -2.3733500627       -2.3372937918        7.7479452241  CLST         161          1.0000000000
       482       161  TIP3  H1           -2.0072002050       -1.7160659945        8.4438996728  CLST         161          1.0000000000
       483       161  TIP3  H2           -3.2524348505       -2.3840666074        8.2473107610  CLST         161          1.0000000000
       484       162  TIP3  OH2          -0.5441535642        3.5662365628      -10.7918051744  CLST         162          1.0000000000
       485       162  TIP3  H1           -0.4538063111        4.2497301699      -11.5355618443  CLST         162          1.0000000000
       486       162  TIP3  H2           -0.2652336416        4.0913121190      -10.0296753407  CLST         162          1.0000000000
       487       163  TIP3  OH2         -10.0620626187        9.0528479685       11.2526949035  CLST         163          1.0000000000
       488       163  TIP3  H1          -11.0373739473        7.9006631810       11.2905963934  CLST         163          1.0000000000
       489       163  TIP3  H2          -10.6043168244        9.7169850429       11.5752998581  CLST         163          1.0000000000
       490       164  TIP3  OH2           3.8578647930      -10.3930027428       12.9985691082  CLST         164          1.0000000000
       491       164  TIP3  H1            4.4009631440       -9.6683907823       12.6494557413  CLST         164          1.0000000000
       492       164  TIP3  H2            4.5418679608      -11.0763772161       12.9700253594  CLST         164          1.0000000000
       493       165  TIP3  OH2         -12.2143635688       -5.7615534561        3.5548216253  CLST         165          1.0000000000
       494       165  TIP3  H1          -11.8519423621       -5.6673056508        4.5102885834  CLST         165          1.0000000000
       495       165  TIP3  H2          -13.0870415348       -5.8439766822        3.7833760431  CLST         165          1.0000000000
       496       166  TIP3  OH2          -1.6318444493       -6.3707426956      -10.4841126834  CLST         166          1.0000000000
       497       166  TIP3  H1           -0.8262735512       -6.9735976727      -10.4949258448  CLST         166          1.0000000000
       498       166  TIP3  H2           -2.2523914126       -7.0993454633      -10.3672889320  CLST         166          1.0000000000
       499       167  TIP3  OH2           8.0384353126       10.6613387589       -0.7781652274  CLST         167          1.0000000000
       500       167  TIP3  H1            8.5813995365       10.3128945468        0.0157959827  CLST         167          1.0000000000
       501       167  TIP3  H2            8.3595749108        9.8902234792       -1.3382012029  CLST         167          1.0000000000
       502       168  TIP3  OH2          -0.8839724135      -13.3961685590        1.9671358396  CLST         168          1.0000000000
       503       168  TIP3  H1           -0.2615740541      -13.1208111993        2.6752163381  CLST         168          1.0000000000
       504       168  TIP3  H2           -0.4644889110      -14.2091254179        1.6510974696  CLST         168          1.0000000000
       505       169  TIP3  OH2           4.9461051045        4.0835787366        3.2416833818  CLST         169          1.0000000000
       506       169  TIP3  H1            4.0413053789        3.7286847158        3.3498073071  CLST         169          1.0000000000
       507       169  TIP3  H2            4.8729081626        4.6779565011        2.4163569100  CLST         169          1.0000000000
       508       170  TIP3  OH2          -1.2617029664        4.1672630998        1.4804812674  CLST         170          1.0000000000
       509       170  TIP3  H1           -1.9576183316        4.8114309063        1.4123148539  CLST         170          1.0000000000
       510       170  TIP3  H2           -1.7015193563        3.2712548208        1.4049636399  CLST         170          1.0000000000
       511       171  TIP3  OH2          -2.9586385818        1.2966846162        7.2523101052  CLST         171          1.0000000000
       512       171  TIP3  H1           -2.4193846637        0.9993452333        6.4679485786  CLST         171          1.0000000000
       513       171  TIP3  H2           -2.1436295701        1.6552312210        7.6993426609  CLST         171          1.0000000000
       514       172  TIP3  OH2          -6.3729098700      -12.9840301078        8.0595530314  CLST         172          1.0000000000
       515       172  TIP3  H1           -6.3144527191      -13.5431654840        7.4496376416  CLST         172          1.0000000000
       516       172  TIP3  H2           -4.9686046366      -12.7454450906        7.3244788963  CLST         172          1.0000000000
       517       173  TIP3  OH2          10.5558743390      -12.3747815822        1.9703860616  CLST         173          1.0000000000
       518       173  TIP3  H1           10.3558044617      -12.6093110083        0.1705168345  CLST         173          1.0000000000
       519       173  TIP3  H2            9.6473492609      -12.1259850699        1.1292902409  CLST         173          1.0000000000
       520       174  TIP3  OH2           0.0093936038        5.3850185778        9.8179611285  CLST         174          1.0000000000
       521       174  TIP3  H1           -0.2832675482        4.7376313606       10.4831276830  CLST         174          1.0000000000
       522       174  TIP3  H2           -0.6775974776        6.0616782178        9.8232013925  CLST         174          1.0000000000
       523       175  TIP3  OH2          -5.8719118420       10.5407783137       -3.7992660755  CLST         175          1.0000000000
       524       175  TIP3  H1           -5.1133678791       10.3503889067       -4.4803252479  CLST         175          1.0000000000
       525       175  TIP3  H2           -6.7327428573       10.0367111612       -4.5403719775  CLST         175          1.0000000000
       526       176  TIP3  OH2           6.6663897184        9.3126403337       -7.9485503546  CLST         176          1.0000000000
       527       176  TIP3  H1            7.0522475452       10.2037539224       -8.2203293205  CLST         176          1.0000000000
       528       176  TIP3  H2            6.2592931631        9.5908991311       -7.1194845336  CLST         176          1.0000000000
       529       177  TIP3  OH2          -3.9301912869      -11.3664818015       -1.4817306284  CLST         177          1.0000000000
       530       177  TIP3  H1           -3.1057504045      -11.7737128910       -1.1701218069  CLST         177          1.0000000000
       531       177  TIP3  H2           -4.5516936956      -11.2680683143       -0.5466925830  CLST         177          1.0000000000
       532       178  TIP3  OH2          10.9683380779       -8.8081640963      -11.6281783711  CLST         178          1.0000000000
       533       178  TIP3  H1           11.0539609139       -8.7090218349      -10.6565068315  CLST         178          1.0000000000
       534       178  TIP3  H2           10.9098068518       -7.8063669222      -11.8850847332  CLST         178          1.0000000000
       535       179  TIP3  OH2           6.4271605863       -0.9210815603        8.4698879524  CLST         179          1.0000000000
       536       179  TIP3  H1            6.2391340466       -0.2366786535        9.1993202053  CLST         179          1.0000000000
       537       179  TIP3  H2            7.0957354710       -0.4508212834        7.9760201927  CLST         179          1.0000000000
       538       180  TIP3  OH2          -7.4498907615        7.9685569000        6.0087908602  CLST         180          1.0000000000
       539       180  TIP3  H1           -7.3407996893        7.8795699541        7.0001286326  CLST         180          1.0000000000
       540       180  TIP3  H2           -8.4280381088        7.9039775556        6.0465733709  CLST         180          1.0000000000
       541       181  TIP3  OH2           5.9495586840      -12.9995948835       -0.4706633199  CLST         181          1.0000000000
       542       181  TIP3  H1            6.6776523505      -12.9696611745       -1.0333109468  CLST         181          1.0000000000
       543       181  TIP3  H2            6.4148345930      -12.9336673338        0.4020854512  CLST         181          1.0000000000
       544       182  TIP3  OH2          -1.7984815307       10.3531228934      -10.4755760217  CLST         182          1.0000000000
       545       182  TIP3  H1           -1.3006144067       10.8508641226       -9.7997575776  CLST         182          1.0000000000
       546       182  TIP3  H2           -2.6758865876       10.2188840004       -9.9794504471  CLST         182          1.0000000000
       547       183  TIP3  OH2          -5.5094231996        3.5798593457      -12.2990293933  CLST         183          1.0000000000
       548       183  TIP3  H1           -5.1907693791        3.4891153977      -11.3638030094  CLST         183          1.0000000000
       549       183  TIP3  H2           -6.3410797302        3.0842110975      -12.2377654601  CLST         183          1.0000000000
       550       184  TIP3  OH2           2.9684808544        8.2833460677       -2.3686343153  CLST         184          1.0000000000
       551       184  TIP3  H1            3.1184661706        7.6108154748       -1.6693189017  CLST         184          1.0000000000
       552       184  TIP3  H2            1.9842468956        7.8822649267       -2.4592142907  CLST         184          1.0000000000
       553       185  TIP3  OH2           7.4464680377        4.6687073251       12.1509446008  CLST         185          1.0000000000
       554       185  TIP3  H1            7.7578426883        3.7207246576       12.1765086726  CLST         185          1.0000000000
       555       185  TIP3  H2            6.8709436357        4.7814757785       12.9585991111  CLST         185          1.0000000000
       556       186  TIP3  OH2           3.7687611343        5.9799519757       -5.3226748716  CLST         186          1.0000000000
       557       186  TIP3  H1            3.9108957489        6.9845491062       -5.3379452720  CLST         186          1.0000000000
       558       186  TIP3  H2            4.0469002576        5.7989018697       -6.2541462221  CLST         186          1.0000000000
       559       187  TIP3  OH2           4.0723547199        1.5854527021       -5.4942315917  CLST         187          1.0000000000
       560       187  TIP3  H1            4.1947828384        1.6556795383       -4.5611284456  CLST         187          1.0000000000
       561       187  TIP3  H2            3.7777745442        0.6395953220       -5.5601330971  CLST         187          1.0000000000
       562       188  TIP3  OH2          -4.5392677648       -1.5596506638        4.8862595066  CLST         188          1.0000000000
       563       188  TIP3  H1           -4.6957068823       -0.7224776824        4.3575149469  CLST         188          1.0000000000
       564       188  TIP3  H2           -4.7285929098       -1.1286134851        5.7773181862  CLST         188          1.0000000000
       565       189  TIP3  OH2          -5.0905446731        3.5051933862      -15.0883848775  CLST         189          1.0000000000
       566       189  TIP3  H1           -5.1813351908        3.2260607164      -14.1638525725  CLST         189          1.0000000000
       567       189  TIP3  H2           -4.3906562384        4.1620795309      -14.9206323026  CLST         189          1.0000000000
       568       190  TIP3  OH2           7.2664807953       -5.6370582950        5.2867621866  CLST         190          1.0000000000
       569       190  TIP3  H1            7.3096722828       -5.6311484068        4.2921201693  CLST         190          1.0000000000
       570       190  TIP3  H2            8.2476808838       -5.5740970434        5.3691284753  CLST         190          1.0000000000
       571       191  TIP3  OH2         -11.0107552936       -4.9592576863       -6.6736274564  CLST         191          1.0000000000
       572       191  TIP3  H1          -10.3870818469       -4.4420714599       -7.2500978437  CLST         191          1.0000000000
       573       191  TIP3  H2          -10.2983275984       -5.3396719761       -6.0646388147  CLST         191          1.0000000000
       574       192  TIP3  OH2           8.8596742871       14.2648666467        2.0715154269  CLST         192          1.0000000000
       575       192  TIP3  H1            8.1245006202       14.4016853341        2.6914831294  CLST         192          1.0000000000
       576       192  TIP3  H2            9.3213069940       15.0884785649        2.0144439616  CLST         192          1.0000000000
       577       193  TIP3  OH2           6.1611095430      -12.1847448478       11.7721532531  CLST         193          1.0000000000
       578       193  TIP3  H1            6.8380064162      -12.8608545674       11.5810482526  CLST         193          1.0000000000
       579       193  TIP3  H2            6.3347387137      -11.5490545828       11.0639734729  CLST         193          1.0000000000
       580       194  TIP3  OH2          -6.2972454674       -4.3899626514       10.9192843452  CLST         194          1.0000000000
       581       194  TIP3  H1           -6.6214736238       -4.4797712579       11.7290449641  CLST         194          1.0000000000
       582       194  TIP3  H2           -7.0906359497       -4.2114679932       10.3118536571  CLST         194          1.0000000000
       583       195  TIP3  OH2          -7.3438289907        9.1919432225       10.3625738665  CLST         195          1.0000000000
       584       195  TIP3  H1           -8.3392228488        9.0906930738       10.6976803652  CLST         195          1.0000000000
       585       195  TIP3  H2           -7.3488573162        8.3527224804        9.8373446766  CLST         195          1.0000000000
       586       196  TIP3  OH2           6.1085370604      -12.1975423051       -5.8331275533  CLST         196          1.0000000000
       587       196  TIP3  H1            6.3681579443      -11.4678857909       -6.4420108979  CLST         196          1.0000000000
       588       196  TIP3  H2            5.2144256534      -11.8256504067       -5.6046137204  CLST         196          1.0000000000
       589       197  TIP3  OH2           2.1756184572       -9.0987013880       -2.9976896442  CLST         197          1.0000000000
       590       197  TIP3  H1            2.0006466979       -8.1475697666       -2.7902919510  CLST         197          1.0000000000
       591       197  TIP3  H2            2.9157114502       -9.1492897220       -2.4003525455  CLST         197          1.0000000000
       592       198  TIP3  OH2          10.8997893155        1.6918129208        4.5107918978  CLST         198          1.0000000000
       593       198  TIP3  H1           10.0266307864        1.3515122135        4.2326488590  CLST         198          1.0000000000
       594       198  TIP3  H2           10.8667743482        2.6388886656        4.2795697272  CLST         198          1.0000000000
       595       199  TIP3  OH2          -0.1540323944        8.2577719798       -5.9660090027  CLST         199          1.0000000000
       596       199  TIP3  H1           -0.9925170706        8.5585940604       -5.5341856359  CLST         199          1.0000000000
       597       199  TIP3  H2           -0.2295396847        7.2761759612       -5.8139600322  CLST         199          1.0000000000
       598       200  TIP3  OH2          -7.3623366153       11.9270008246       10.9038821773  CLST         200          1.0000000000
       599       200  TIP3  H1           -7.4615991269       10.9802084976       10.5890958969  CLST         200          1.0000000000
       600       200  TIP3  H2           -7.0395923416       12.2995315714       10.0584330457  CLST         200          1.0000000000
       601       201  TIP3  OH2           4.6215349125        0.9904387315       -0.1601343150  CLST         201          1.0000000000
       602       201  TIP3  H1            4.6519516934        1.5309718130        0.6978028062  CLST         201          1.0000000000
       603       201  TIP3  H2            5.0070465512        0.2072801674        0.3340282797  CLST         201          1.0000000000
       604       202  TIP3  OH2          -2.1455084796       -4.5055429055      -12.4142509098  CLST         202          1.0000000000
       605       202  TIP3  H1           -1.7859768635       -5.1377829959      -11.7508422261  CLST         202          1.0000000000
       606       202  TIP3  H2           -2.3721841769       -3.7166806723      -11.8770283351  CLST         202          1.0000000000
       607       203  TIP3  OH2          -0.6817543302       11.4228215655        7.3601260552  CLST         203          1.0000000000
       608       203  TIP3  H1            0.1132172003       11.0936610559        7.8441988813  CLST         203          1.0000000000
       609       203  TIP3  H2           -1.3478304907       10.8391945941        7.8547313797  CLST         203          1.0000000000
       610       204  TIP3  OH2          -5.4039408715        6.4006583739      -13.2284617933  CLST         204          1.0000000000
       611       204  TIP3  H1           -4.6638775492        6.3447450443      -13.8476378389  CLST         204          1.0000000000
       612       204  TIP3  H2           -5.6593154627        5.4474148088      -13.1863822165  CLST         204          1.0000000000
       613       205  TIP3  OH2          -2.2999748850        7.0921056790       -2.6437850875  CLST         205          1.0000000000
       614       205  TIP3  H1           -2.2860025356        7.8563791150       -3.3131030869  CLST         205          1.0000000000
       615       205  TIP3  H2           -1.3364525520        7.0138306921       -2.5281461645  CLST         205          1.0000000000
       616       206  TIP3  OH2           5.1038266420      -10.9666482546       -9.8402612391  CLST         206          1.0000000000
       617       206  TIP3  H1            5.0220373826      -11.9724309665       -9.4658188732  CLST         206          1.0000000000
       618       206  TIP3  H2            5.8630045133      -10.7418629493       -9.1944920641  CLST         206          1.0000000000
       619       207  TIP3  OH2          13.0570509641       10.2999538521       11.9805199159  CLST         207          1.0000000000
       620       207  TIP3  H1           12.6268598738        9.9727011404       12.5939550996  CLST         207          1.0000000000
       621       207  TIP3  H2           13.8191797101       10.6731264762       12.1739499003  CLST         207          1.0000000000
       622       208  TIP3  OH2         -11.4359640719        2.4070410132        6.8371297213  CLST         208          1.0000000000
       623       208  TIP3  H1          -11.0949792512        2.2949596731        7.7363933110  CLST         208          1.0000000000
       624       208  TIP3  H2          -11.3030301709        3.3669862417        6.6004247857  CLST         208          1.0000000000
       625       209  TIP3  OH2           4.6134163362       -9.2750926728        7.3344419949  CLST         209          1.0000000000
       626       209  TIP3  H1            4.2384085246       -9.5306261929        6.4604122183  CLST         209          1.0000000000
       627       209  TIP3  H2            3.7950619456       -8.7064250367        7.5199740570  CLST         209          1.0000000000
       628       210  TIP3  OH2          12.0272120251      -11.2340741478        5.3817045427  CLST         210          1.0000000000
       629       210  TIP3  H1           12.5459671868      -11.2830697946        3.9134647267  CLST         210          1.0000000000
       630       210  TIP3  H2           12.4470045642       -9.7379883149        5.6748364872  CLST         210          1.0000000000
       631       211  TIP3  OH2          -0.1903257144       -9.2795789661       12.1714024070  CLST         211          1.0000000000
       632       211  TIP3  H1            0.2566077614       -9.7889539624       12.8658127662  CLST         211          1.0000000000
       633       211  TIP3  H2           -1.0633791407       -9.7009312861       12.1365802051  CLST         211          1.0000000000
       634       212  TIP3  OH2         -12.4408765137        3.4207137880       -2.3610893847  CLST         212          1.0000000000
       635       212  TIP3  H1          -11.8487481735        4.0420189413       -2.8895276981  CLST         212          1.0000000000
       636       212  TIP3  H2          -11.7782391915        2.7214040665       -2.2093301262  CLST         212          1.0000000000
       637       213  TIP3  OH2          -9.2966070114      -11.4773326486      -11.2366122094  CLST         213          1.0000000000
       638       213  TIP3  H1           -9.2235911813      -11.5098243616      -12.3455369979  CLST         213          1.0000000000
       639       213  TIP3  H2           -8.2411880156      -11.1850705852      -11.9042163035  CLST         213          1.0000000000
       640       214  TIP3  OH2          -6.4402272711        2.3033677422       -5.4805852827  CLST         214          1.0000000000
       641       214  TIP3  H1           -6.3010760846        1.4230592529       -4.9855858403  CLST         214          1.0000000000
       642       214  TIP3  H2           -7.1557937440        2.6555855256       -4.8105449638  CLST         214          1.0000000000
       643       215  TIP3  OH2         -11.8088341972      -12.8037075414        5.6904218713  CLST         215          1.0000000000
       644       215  TIP3  H1          -10.8838978142      -12.5287666766        5.6055523490  CLST         215          1.0000000000
       645       215  TIP3  H2          -11.8519215652      -13.1658553585        4.7673415964  CLST         215          1.0000000000
       646       216  TIP3  OH2         -11.8673228650       -2.1795969429        8.1980077444  CLST         216          1.0000000000
       647       216  TIP3  H1          -10.9066623557       -1.9118733806        8.3174810113  CLST         216          1.0000000000
       648       216  TIP3  H2          -11.6699008629       -3.1806845614        8.3041488525  CLST         216          1.0000000000
       649       217  TIP3  OH2           7.5104209942       -0.2058828770       -1.6019679838  CLST         217          1.0000000000
       650       217  TIP3  H1            7.7359324848       -1.0843189956       -1.9486208569  CLST         217          1.0000000000
       651       217  TIP3  H2            7.0929227051       -0.4099728300       -0.7348539488  CLST         217          1.0000000000
       652       218  TIP3  OH2          -8.2340485947       -3.8685374908        9.1924779261  CLST         218          1.0000000000
       653       218  TIP3  H1           -8.5271814574       -2.9432210121        9.0200253532  CLST         218          1.0000000000
       654       218  TIP3  H2           -7.6195260490       -4.0169662417        8.4103445864  CLST         218          1.0000000000
       655       219  TIP3  OH2         -12.6152320720       -4.5643653024       -2.6419350918  CLST         219          1.0000000000
       656       219  TIP3  H1          -12.4828573212       -3.6257650251       -2.5513020220  CLST         219          1.0000000000
       657       219  TIP3  H2          -13.0175308474       -4.5269359487       -3.5507812747  CLST         219          1.0000000000
       658       220  TIP3  OH2           6.2739410462        6.8121167847        7.5312745293  CLST         220          1.0000000000
       659       220  TIP3  H1            5.7597867807        6.6693777187        6.6352483888  CLST         220          1.0000000000
       660       220  TIP3  H2            5.5477209948        6.2626942097        8.0396439861  CLST         220          1.0000000000
       661       221  TIP3  OH2         -10.4835396966       -7.1669959059       10.0439216925  CLST         221          1.0000000000
       662       221  TIP3  H1           -9.7562862419       -7.5337971377       10.4742739771  CLST         221          1.0000000000
       663       221  TIP3  H2          -10.8751998288       -8.0955989236        9.7671711524  CLST         221          1.0000000000
       664       222  TIP3  OH2          -6.8669751291       -0.7595870446      -13.5227728897  CLST         222          1.0000000000
       665       222  TIP3  H1           -6.3624854659       -1.6315882336      -13.3130697265  CLST         222          1.0000000000
       666       222  TIP3  H2           -7.7392747057       -1.1687275931      -13.6142690241  CLST         222          1.0000000000
       667       223  TIP3  OH2           2.7763117288      -10.8119522327      -11.5817871301  CLST         223          1.0000000000
       668       223  TIP3  H1            2.1583496104      -11.5913574206      -11.4240470469  CLST         223          1.0000000000
       669       223  TIP3  H2            3.6154906095      -11.0870350227      -11.1950712295  CLST         223          1.0000000000
       670       224  TIP3  OH2           7.4564078063        4.6571614633        0.5968865122  CLST         224          1.0000000000
       671       224  TIP3  H1            8.2826293590        5.1569768461        0.5006725793  CLST         224          1.0000000000
       672       224  TIP3  H2            7.3511631296        4.1470920142       -0.2424698571  CLST         224          1.0000000000
       673       225  TIP3  OH2          -0.0285435723        4.6629152581       -1.2117532232  CLST         225          1.0000000000
       674       225  TIP3  H1           -0.3504742905        4.6145565232       -0.2947618595  CLST         225          1.0000000000
       675       225  TIP3  H2           -0.0994660103        3.6746485059       -1.3754411351  CLST         225          1.0000000000
       676       226  TIP3  OH2          -5.7353096161       -4.4700233157        7.7215555847  CLST         226          1.0000000000
       677       226  TIP3  H1           -5.7094450763       -5.4812285900        7.8764027838  CLST         226          1.0000000000
       678       226  TIP3  H2           -5.5627717044       -4.5351559848        6.7559660999  CLST         226          1.0000000000
       679       227  TIP3  OH2          11.5456847247       -4.1443581231       -9.8738288816  CLST         227          1.0000000000
       680       227  TIP3  H1           11.6289101100       -3.5742031241       -9.0116971684  CLST         227          1.0000000000
       681       227  TIP3  H2           11.2021045403       -3.4120675758      -10.4305513191  CLST         227          1.0000000000
       682       228  TIP3  OH2           3.6136531263       12.3154081095        3.3699287901  CLST         228          1.0000000000
       683       228  TIP3  H1            2.7832175494       11.9154521700        3.8288566789  CLST         228          1.0000000000
       684       228  TIP3  H2            3.1892073082       12.5531698372        2.5591260409  CLST         228          1.0000000000
       685       229  TIP3  OH2         -11.4724487726      -13.1834775969        3.0565357926  CLST         229          1.0000000000
       686       229  TIP3  H1          -10.9895975351      -12.8507571912        1.9936951193  CLST         229          1.0000000000
       687       229  TIP3  H2          -11.1667102775      -11.9833211468        2.9095795389  CLST         229          1.0000000000
       688       230  TIP3  OH2          12.2688065213        6.2272729159       -3.5666832299  CLST         230          1.0000000000
       689       230  TIP3  H1           13.2364140407        6.2753048362       -3.5340090226  CLST         230          1.0000000000
       690       230  TIP3  H2           12.1738127032        5.2996198166       -3.4935237304  CLST         230          1.0000000000
       691       231  TIP3  OH2           7.1570050980        3.3724147791        4.7552885451  CLST         231          1.0000000000
       692       231  TIP3  H1            7.5459653133        4.2663094582        5.0656768252  CLST         231          1.0000000000
       693       231  TIP3  H2            6.3240677656        3.8072814167        4.4229494720  CLST         231          1.0000000000
       694       232  TIP3  OH2         -10.3847030564        8.8997792842        7.5536776423  CLST         232          1.0000000000
       695       232  TIP3  H1          -10.7506563388        9.4724737921        8.2707512719  CLST         232          1.0000000000
       696       232  TIP3  H2          -10.3045468298        8.0668203415        8.1089264418  CLST         232          1.0000000000
       697       233  TIP3  OH2           3.6613776388       -5.3456800847        8.1840334454  CLST         233          1.0000000000
       698       233  TIP3  H1            4.2233979619       -5.7684718234        8.8431805386  CLST         233          1.0000000000
       699       233  TIP3  H2            3.5680665613       -4.4658929417        8.6768465772  CLST         233          1.0000000000
       700       234  TIP3  OH2          -3.4737559807        8.5182336657       -0.5406248648  CLST         234          1.0000000000
       701       234  TIP3  H1           -2.9742428160        8.3952049984       -1.3896474844  CLST         234          1.0000000000
       702       234  TIP3  H2           -3.5359330655        9.5425900162       -0.6480954387  CLST         234          1.0000000000
       703       235  TIP3  OH2          -1.9462358391       -4.0491190469       -9.1418063161  CLST         235          1.0000000000
       704       235  TIP3  H1           -1.8275769141       -4.9765514155       -9.5337980702  CLST         235          1.0000000000
       705       235  TIP3  H2           -0.9650265619       -3.8720690890       -9.0714156425  CLST         235          1.0000000000
       706       236  TIP3  OH2          -0.2872374259      -13.5206006840       -3.0603191462  CLST         236          1.0000000000
       707       236  TIP3  H1            0.3432245393      -12.8169721196       -2.7153005835  CLST         236          1.0000000000
       708       236  TIP3  H2           -0.8798951762      -13.5040201310       -2.3004017004  CLST         236          1.0000000000
       709       237  TIP3  OH2          -3.5650416937       -5.0127290009       10.9193800633  CLST         237          1.0000000000
       710       237  TIP3  H1           -4.4536556975       -4.7750322274       11.1057407496  CLST         237          1.0000000000
       711       237  TIP3  H2           -3.8140834078       -5.5909547765       10.1271862135  CLST         237          1.0000000000
       712       238  TIP3  OH2           0.5183718322        4.6483506901        7.2910837595  CLST         238          1.0000000000
       713       238  TIP3  H1           -0.1301148507        5.2288151084        6.8270327868  CLST         238          1.0000000000
       714       238  TIP3  H2            0.3743946839        4.9592685200        8.2421334839  CLST         238          1.0000000000
       715       239  TIP3  OH2         -13.8544859718        5.8460129581        3.6671986605  CLST         239          1.0000000000
       716       239  TIP3  H1          -14.0171413540        6.4089658643        2.9026535883  CLST         239          1.0000000000
       717       239  TIP3  H2          -13.3079058121        5.1424588043        3.2506671632  CLST         239          1.0000000000
       718       240  TIP3  OH2         -14.0711158865        8.8728718857       -0.1341588281  CLST         240          1.0000000000
       719       240  TIP3  H1          -14.2153292820        8.5472008287        1.0976559443  CLST         240          1.0000000000
       720       240  TIP3  H2          -14.1232978172        7.6761109537        0.6075275173  CLST         240          1.0000000000
       721       241  TIP3  OH2          -7.7010381706       -7.8071798381       -8.5987828132  CLST         241          1.0000000000
       722       241  TIP3  H1           -7.9231599824       -7.9894844668       -7.6665225366  CLST         241          1.0000000000
       723       241  TIP3  H2           -7.6738333569       -6.8020647613       -8.5950655430  CLST         241          1.0000000000
       724       242  TIP3  OH2           6.1513434572       -5.8107144687        9.7166828266  CLST         242          1.0000000000
       725       242  TIP3  H1            6.5105391579       -5.0191344043        9.2360553874  CLST         242          1.0000000000
       726       242  TIP3  H2            6.8308033494       -6.5134764292        9.4485841400  CLST         242          1.0000000000
       727       243  TIP3  OH2          -6.6150827232       -7.1637375783       -4.0971402852  CLST         243          1.0000000000
       728       243  TIP3  H1           -6.3824667198       -7.7909479378       -4.8150420602  CLST         243          1.0000000000
       729       243  TIP3  H2           -6.6641694866       -7.8401483132       -3.3857466692  CLST         243          1.0000000000
       730       244  TIP3  OH2           4.9139038917        5.8383502494        5.4363657006  CLST         244          1.0000000000
       731       244  TIP3  H1            4.9454509461        5.5609520841        4.5193545111  CLST         244          1.0000000000
       732       244  TIP3  H2            4.2281070876        5.2707603596        5.6930100437  CLST         244          1.0000000000
       733       245  TIP3  OH2          -7.2332332201        3.6972520827       -7.6581859924  CLST         245          1.0000000000
       734       245  TIP3  H1           -7.0194047172        2.9920685907       -7.0146028348  CLST         245          1.0000000000
       735       245  TIP3  H2           -7.5233388397        4.4423402199       -7.1524585120  CLST         245          1.0000000000
       736       246  TIP3  OH2           2.0822639672       -6.4569359029       -1.8977397518  CLST         246          1.0000000000
       737       246  TIP3  H1            1.8871463302       -5.7703668715       -2.5929530399  CLST         246          1.0000000000
       738       246  TIP3  H2            3.1084086140       -6.4539143381       -1.9732997344  CLST         246          1.0000000000
       739       247  TIP3  OH2           6.0808457320        7.9206953520        0.6201861051  CLST         247          1.0000000000
       740       247  TIP3  H1            6.4905042481        7.6470660569       -0.1883689406  CLST         247          1.0000000000
       741       247  TIP3  H2            5.5190179325        8.6715050707        0.3236479113  CLST         247          1.0000000000
       742       248  TIP3  OH2          -2.3179877813        8.2327911228      -11.9605285119  CLST         248          1.0000000000
       743       248  TIP3  H1           -1.6476672179        8.1169317366      -12.6070602416  CLST         248          1.0000000000
       744       248  TIP3  H2           -2.0373301687        9.0073492598      -11.4199179382  CLST         248          1.0000000000
       745       249  TIP3  OH2           8.7516602141        4.5862522503       -7.6633092069  CLST         249          1.0000000000
       746       249  TIP3  H1            8.0754439936        5.1876224219       -7.2479849207  CLST         249          1.0000000000
       747       249  TIP3  H2            8.4542367170        3.8120786792       -7.2002106664  CLST         249          1.0000000000
       748       250  TIP3  OH2          -7.7158407832        9.5607342992       -5.2015183477  CLST         250          1.0000000000
       749       250  TIP3  H1           -8.0749002147        8.6440875801       -5.4155250920  CLST         250          1.0000000000
       750       250  TIP3  H2           -7.6282627620        9.8840012061       -6.1371888835  CLST         250          1.0000000000
       751       251  TIP3  OH2          -3.2561103359       12.3841812254        3.1943351393  CLST         251          1.0000000000
       752       251  TIP3  H1           -2.4906077536       12.6723447798        2.6321871031  CLST         251          1.0000000000
       753       251  TIP3  H2           -2.7697839288       12.2542215562        3.9974247922  CLST         251          1.0000000000
       754       252  TIP3  OH2           5.9704096650        5.2911976482       14.4004760408  CLST         252          1.0000000000
       755       252  TIP3  H1            5.7607909791        6.2623027458       14.4895861611  CLST         252          1.0000000000
       756       252  TIP3  H2            5.7761678797        4.8240131034       15.0882315277  CLST         252          1.0000000000
       757       253  TIP3  OH2           6.1899556143       14.0388369537        3.0580069865  CLST         253          1.0000000000
       758       253  TIP3  H1            5.2710475519       13.8380328107        3.2752175473  CLST         253          1.0000000000
       759       253  TIP3  H2            6.3317689945       13.4859288365        2.2830549894  CLST         253          1.0000000000
       760       254  TIP3  OH2          -4.1153882821        8.1239866979        2.9273708575  CLST         254          1.0000000000
       761       254  TIP3  H1           -4.5717725192        8.9555466184        2.5683550383  CLST         254          1.0000000000
       762       254  TIP3  H2           -4.9690858340        7.8062421502        3.3593326436  CLST         254          1.0000000000
       763       255  TIP3  OH2          -7.0533027902       10.6622305556        4.2141560114  CLST         255          1.0000000000
       764       255  TIP3  H1           -7.9739818604       11.0050554169        4.1568539066  CLST         255          1.0000000000
       765       255  TIP3  H2           -7.1570617068       10.0507954752        4.9644795542  CLST         255          1.0000000000
       766       256  TIP3  OH2          11.4644217069        3.8512468619       -1.3624485167  CLST         256          1.0000000000
       767       256  TIP3  H1           11.7416916684        2.9390293035       -1.6298915321  CLST         256          1.0000000000
       768       256  TIP3  H2           11.5194538649        3.7395798248       -0.3880150093  CLST         256          1.0000000000
       769       257  TIP3  OH2          -8.3914907452       -1.2389243063       -4.9950122780  CLST         257          1.0000000000
       770       257  TIP3  H1           -7.5516854903       -0.8367862946       -4.6177255168  CLST         257          1.0000000000
       771       257  TIP3  H2           -8.2742140022       -0.9592026958       -5.9283895232  CLST         257          1.0000000000
       772       258  TIP3  OH2          -5.3249950490       10.2526474697        7.8197560015  CLST         258          1.0000000000
       773       258  TIP3  H1           -5.2161901276       10.7108241028        6.9253627358  CLST         258          1.0000000000
       774       258  TIP3  H2           -6.1246327276       10.7295462757        8.1487879773  CLST         258          1.0000000000
       775       259  TIP3  OH2          10.0618732101        5.9391758416        0.8288080735  CLST         259          1.0000000000
       776       259  TIP3  H1           11.0342051686        6.1948605975        0.8395281897  CLST         259          1.0000000000
       777       259  TIP3  H2            9.7364102100        6.7274633538        1.3132534657  CLST         259          1.0000000000
       778       260  TIP3  OH2          -4.9510597178        7.6209765835        8.8359339192  CLST         260          1.0000000000
       779       260  TIP3  H1           -5.0120217811        8.4057924674        8.2597388685  CLST         260          1.0000000000
       780       260  TIP3  H2           -5.8248077420        7.1920410063        8.6324715285  CLST         260          1.0000000000
       781       261  TIP3  OH2           0.8006528872       -4.3122832004       12.2574527066  CLST         261          1.0000000000
       782       261  TIP3  H1            0.3060869970       -5.1784359480       12.4043837294  CLST         261          1.0000000000
       783       261  TIP3  H2            1.6338909922       -4.6044954577       12.7009110686  CLST         261          1.0000000000
       784       262  TIP3  OH2         -11.1089810696        4.7950707379        6.0144828069  CLST         262          1.0000000000
       785       262  TIP3  H1          -10.3288959603        4.6206319837        5.4484905142  CLST         262          1.0000000000
       786       262  TIP3  H2          -11.6812398478        5.2276226220        5.3088073567  CLST         262          1.0000000000
       787       263  TIP3  OH2           1.6298753797        0.8284181638        6.7833701897  CLST         263          1.0000000000
       788       263  TIP3  H1            2.2432368323        1.5602347280        6.6928273972  CLST         263          1.0000000000
       789       263  TIP3  H2            2.2246266445        0.0815171923        6.9659648922  CLST         263          1.0000000000
       790       264  TIP3  OH2           5.1525916625       -4.4837398135       -9.4971406485  CLST         264          1.0000000000
       791       264  TIP3  H1            5.1683610582       -5.4121821115       -9.8810264980  CLST         264          1.0000000000
       792       264  TIP3  H2            4.3204655358       -4.2319641290       -9.9851782857  CLST         264          1.0000000000
       793       265  TIP3  OH2           7.6842453345        4.8578888404      -10.1468977712  CLST         265          1.0000000000
       794       265  TIP3  H1            7.8717177179        5.8957647901      -10.2155848816  CLST         265          1.0000000000
       795       265  TIP3  H2            8.1891926016        4.7533558405       -9.2255134686  CLST         265          1.0000000000
       796       266  TIP3  OH2          -8.0881985693       -8.8260893043       -0.0319670024  CLST         266          1.0000000000
       797       266  TIP3  H1           -7.9734706851       -9.0047817189        0.9265908646  CLST         266          1.0000000000
       798       266  TIP3  H2           -8.2834591695       -7.8381011339       -0.0643391836  CLST         266          1.0000000000
       799       267  TIP3  OH2           1.1679793628        2.5278848864       -5.1966613867  CLST         267          1.0000000000
       800       267  TIP3  H1            1.1803324817        3.4918145225       -4.9190050084  CLST         267          1.0000000000
       801       267  TIP3  H2            2.1013090509        2.2990509622       -5.1279846080  CLST         267          1.0000000000
       802       268  TIP3  OH2           5.2157461760       -4.5805724526       -6.7604948011  CLST         268          1.0000000000
       803       268  TIP3  H1            5.1394480821       -4.3184614042       -7.7230086020  CLST         268          1.0000000000
       804       268  TIP3  H2            4.7503756291       -5.4527079515       -6.8433594245  CLST         268          1.0000000000
       805       269  TIP3  OH2           5.4548165772       10.7801947109       -0.0745448260  CLST         269          1.0000000000
       806       269  TIP3  H1            6.3559595195       10.6552865107       -0.5161489225  CLST         269          1.0000000000
       807       269  TIP3  H2            5.6896295402       11.5967574010        0.3965542197  CLST         269          1.0000000000
       808       270  TIP3  OH2           1.3100548696        9.1825524092       -7.9999251021  CLST         270          1.0000000000
       809       270  TIP3  H1            1.4880834732        8.3491779699       -8.5272601322  CLST         270          1.0000000000
       810       270  TIP3  H2            0.8431893482        8.8105907625       -7.2118492811  CLST         270          1.0000000000
       811       271  TIP3  OH2          -6.5705429996       -9.1076054354       -2.1673655658  CLST         271          1.0000000000
       812       271  TIP3  H1           -5.6970878196       -9.1058207686       -1.7034721832  CLST         271          1.0000000000
       813       271  TIP3  H2           -7.1601944599       -9.0664800371       -1.3362944276  CLST         271          1.0000000000
       814       272  TIP3  OH2           9.5680577467       -8.2710966135        5.6595079804  CLST         272          1.0000000000
       815       272  TIP3  H1            8.5890719135       -8.4179157741        5.8514188992  CLST         272          1.0000000000
       816       272  TIP3  H2            9.4683198537       -7.7135024301        4.8579970390  CLST         272          1.0000000000
       817       273  TIP3  OH2         -13.8841727722        9.4926034117        3.0336674773  CLST         273          1.0000000000
       818       273  TIP3  H1          -14.4901319004        9.8629951572        3.7299648307  CLST         273          1.0000000000
       819       273  TIP3  H2          -13.5381804749        8.8159853091        3.5966461395  CLST         273          1.0000000000
       820       274  TIP3  OH2           4.2068768123       12.9546554875       -4.3481503099  CLST         274          1.0000000000
       821       274  TIP3  H1            3.4751487944       12.1329564815       -2.1737324606  CLST         274          1.0000000000
       822       274  TIP3  H2            3.9806201248       12.7313400556       -3.3793067260  CLST         274          1.0000000000
       823       275  TIP3  OH2           8.7958934110      -11.3692966747        5.8344433527  CLST         275          1.0000000000
       824       275  TIP3  H1            9.4650881347      -10.6228302257        5.7892069541  CLST         275          1.0000000000
       825       275  TIP3  H2            9.4240922913      -12.1120306918        5.4768704151  CLST         275          1.0000000000
       826       276  TIP3  OH2          -0.1926749775       -5.9579048887        1.5647615200  CLST         276          1.0000000000
       827       276  TIP3  H1           -0.7301990733       -6.1450959317        0.7514015206  CLST         276          1.0000000000
       828       276  TIP3  H2           -0.7514443750       -5.2693684879        2.0291320782  CLST         276          1.0000000000
       829       277  TIP3  OH2           6.2572479438        6.2916731403       -7.0500012395  CLST         277          1.0000000000
       830       277  TIP3  H1            5.2937534716        5.9139457862       -7.8399507939  CLST         277          1.0000000000
       831       277  TIP3  H2            6.2738891645        7.3872359999       -7.9536494710  CLST         277          1.0000000000
       832       278  TIP3  OH2          -0.7174658642       -7.6705149575        3.4123056766  CLST         278          1.0000000000
       833       278  TIP3  H1           -0.4191578066       -7.0322707272        2.6960208768  CLST         278          1.0000000000
       834       278  TIP3  H2           -0.9656240085       -7.0234135886        4.1063807562  CLST         278          1.0000000000
       835       279  TIP3  OH2         -13.5296102669        6.4523600029        0.4860219542  CLST         279          1.0000000000
       836       279  TIP3  H1          -13.8583042157        5.4705763691        0.1571778597  CLST         279          1.0000000000
       837       279  TIP3  H2          -12.5647708904        6.2365650550        0.8628313158  CLST         279          1.0000000000
       838       280  TIP3  OH2          -3.2383055262      -10.0728706366        5.5535933713  CLST         280          1.0000000000
       839       280  TIP3  H1           -2.6252190477       -9.4377982990        6.0067869541  CLST         280          1.0000000000
       840       280  TIP3  H2           -3.8523801204       -9.3679109483        5.1616143953  CLST         280          1.0000000000
       841       281  TIP3  OH2           8.0134548826        7.7310503780      -10.7531991013  CLST         281          1.0000000000
       842       281  TIP3  H1            8.2763551385        8.6724895493      -10.7716749678  CLST         281          1.0000000000
       843       281  TIP3  H2            7.0086736859        7.8982312626      -10.6912804307  CLST         281          1.0000000000
       844       282  TIP3  OH2          -7.8533023324      -11.7955330986       10.0058887609  CLST         282          1.0000000000
       845       282  TIP3  H1           -8.7260617132      -11.6771905464        9.5985647469  CLST         282          1.0000000000
       846       282  TIP3  H2           -7.5445222860      -12.5105470011        9.2328190638  CLST         282          1.0000000000
       847       283  TIP3  OH2           4.5038300699        8.7588552427       -4.7133350654  CLST         283          1.0000000000
       848       283  TIP3  H1            4.7519631326        9.7119330270       -4.8750230214  CLST         283          1.0000000000
       849       283  TIP3  H2            3.9396525281        8.7499322678       -3.9243663646  CLST         283          1.0000000000
       850       284  TIP3  OH2          11.9378079696        8.1948223158       -1.2607595748  CLST         284          1.0000000000
       851       284  TIP3  H1           11.6023225724        7.4521231795       -1.7706150520  CLST         284          1.0000000000
       852       284  TIP3  H2           11.1940058474        8.7995571224       -1.4176941903  CLST         284          1.0000000000
       853       285  TIP3  OH2          -5.3744196612        2.1478466481        9.0816893357  CLST         285          1.0000000000
       854       285  TIP3  H1           -4.8682299486        1.9856805250        8.2591087595  CLST         285          1.0000000000
       855       285  TIP3  H2           -4.6887721563        2.7983505651        9.4097307245  CLST         285          1.0000000000
       856       286  TIP3  OH2           2.9843600250        5.7776714404       -0.5659484558  CLST         286          1.0000000000
       857       286  TIP3  H1            2.1530701698        5.4668092368       -0.1124678408  CLST         286          1.0000000000
       858       286  TIP3  H2            3.6331537574        5.6348953896        0.1870736997  CLST         286          1.0000000000
       859       287  TIP3  OH2          -4.2382227506        9.3699621798       11.3017362794  CLST         287          1.0000000000
       860       287  TIP3  H1           -4.7654576810       10.1549977576       11.5980366588  CLST         287          1.0000000000
       861       287  TIP3  H2           -4.9712720655        8.9599948383       10.7531510811  CLST         287          1.0000000000
       862       288  TIP3  OH2           5.1695707443        3.5594310686       -9.1668097112  CLST         288          1.0000000000
       863       288  TIP3  H1            6.2776528388        4.3398447126       -9.4605515321  CLST         288          1.0000000000
       864       288  TIP3  H2            6.8076016303        4.1615042182      -10.6155215003  CLST         288          1.0000000000
       865       289  TIP3  OH2          -7.3091557983       -5.1604320028       -8.4796339209  CLST         289          1.0000000000
       866       289  TIP3  H1           -7.9412266367       -4.3957912270       -8.3583762736  CLST         289          1.0000000000
       867       289  TIP3  H2           -6.4951114283       -4.8746968039       -8.2118726857  CLST         289          1.0000000000
       868       290  TIP3  OH2           2.0939101216      -12.0616766480       11.2327398749  CLST         290          1.0000000000
       869       290  TIP3  H1            2.8731639433      -12.5915575945       11.3225933925  CLST         290          1.0000000000
       870       290  TIP3  H2            2.2037410977      -11.4578861328       11.9993742928  CLST         290          1.0000000000
       871       291  TIP3  OH2         -10.1933002862       -3.5089441384        2.9530651634  CLST         291          1.0000000000
       872       291  TIP3  H1          -10.8917791034       -3.7824398616        3.5314441830  CLST         291          1.0000000000
       873       291  TIP3  H2          -10.2194264609       -4.1117330614        2.1892178579  CLST         291          1.0000000000
       874       292  TIP3  OH2          12.1174341437        3.3501365209       -4.6794607198  CLST         292          1.0000000000
       875       292  TIP3  H1           11.2473885291        2.8971358621       -4.6305451182  CLST         292          1.0000000000
       876       292  TIP3  H2           11.9406664692        4.0572330367       -5.4108378121  CLST         292          1.0000000000
       877       293  TIP3  OH2           9.0120356599       10.6946930113       11.1032443248  CLST         293          1.0000000000
       878       293  TIP3  H1            8.7091780019       11.4825896962       11.5473911103  CLST         293          1.0000000000
       879       293  TIP3  H2            9.0661348517       11.2198340610       10.1804161481  CLST         293          1.0000000000
       880       294  TIP3  OH2           4.1865899251        4.5052449806       -2.5503936200  CLST         294          1.0000000000
       881       294  TIP3  H1            3.6665032126        5.0740196258       -1.8780440348  CLST         294          1.0000000000
       882       294  TIP3  H2            4.3555264098        5.1070536877       -3.3449873748  CLST         294          1.0000000000
       883       295  TIP3  OH2          -2.3510160197      -13.5959404858       -8.6530133845  CLST         295          1.0000000000
       884       295  TIP3  H1           -3.0352059892      -13.7299475911       -7.9779583034  CLST         295          1.0000000000
       885       295  TIP3  H2           -1.5116366807      -13.5472189666       -8.1388090793  CLST         295          1.0000000000
       886       296  TIP3  OH2          -1.4952293016       11.6063768459      -13.0068085068  CLST         296          1.0000000000
       887       296  TIP3  H1           -0.6251778205       11.1271327582      -12.9905081717  CLST         296          1.0000000000
       888       296  TIP3  H2           -1.7907694153       11.2603376787      -12.1181562416  CLST         296          1.0000000000
       889       297  TIP3  OH2           7.9246967706       -0.3948306996       11.4817080461  CLST         297          1.0000000000
       890       297  TIP3  H1            8.5030733210       -0.9619556310       10.9803809330  CLST         297          1.0000000000
       891       297  TIP3  H2            7.1552994784       -0.9587873704       11.7426440144  CLST         297          1.0000000000
       892       298  TIP3  OH2           1.0171355510       -1.2294944648       -7.5558922475  CLST         298          1.0000000000
       893       298  TIP3  H1            1.4871727287       -0.6318470909       -8.1500167891  CLST         298          1.0000000000
       894       298  TIP3  H2            0.9394031293       -2.0259778036       -8.1487603974  CLST         298          1.0000000000
       895       299  TIP3  OH2           3.1304648893       10.1684348992       12.8767992959  CLST         299          1.0000000000
       896       299  TIP3  H1            2.3433789459       10.5644964998       12.3942551885  CLST         299          1.0000000000
       897       299  TIP3  H2            2.7671465702        9.4132067051       13.1185814933  CLST         299          1.0000000000
       898       300  TIP3  OH2         -10.9055598138        5.1483728133       -3.6411555553  CLST         300          1.0000000000
       899       300  TIP3  H1          -10.7487694116        5.5151939207       -4.5585627905  CLST         300          1.0000000000
       900       300  TIP3  H2          -10.8409377413        6.0072563739       -3.1696227137  CLST         300          1.0000000000
       901       301  TIP3  OH2           9.4711654441       -8.3084924368       11.1163054047  CLST         301          1.0000000000
       902       301  TIP3  H1            9.2567265571       -7.9623693085       12.0493422158  CLST         301          1.0000000000
       903       301  TIP3  H2            9.6522187671       -9.2550895322       11.3707335134  CLST         301          1.0000000000
       904       302  TIP3  OH2           7.8895196380       12.9596710836        5.5671091293  CLST         302          1.0000000000
       905       302  TIP3  H1            7.3530012832       13.2654245817        4.8174359171  CLST         302          1.0000000000
       906       302  TIP3  H2            7.1924409288       12.4070639761        5.9714955822  CLST         302          1.0000000000
       907       303  TIP3  OH2         -10.6762200101        1.2420637286       -2.0402758302  CLST         303          1.0000000000
       908       303  TIP3  H1           -9.6989146071        1.0212447645       -1.8920392841  CLST         303          1.0000000000
       909       303  TIP3  H2          -10.8690653226        0.7579128672       -2.8940169215  CLST         303          1.0000000000
       910       304  TIP3  OH2          -7.9321771732        1.3452106561      -14.8375149638  CLST         304          1.0000000000
       911       304  TIP3  H1           -7.6124726510        0.5608740976      -14.3668873797  CLST         304          1.0000000000
       912       304  TIP3  H2           -7.2817827831        1.6041546605      -15.4825650125  CLST         304          1.0000000000
       913       305  TIP3  OH2           3.5900939126       -3.7682213486       13.8785719544  CLST         305          1.0000000000
       914       305  TIP3  H1            4.5165281869       -3.7932821636       13.6098859328  CLST         305          1.0000000000
       915       305  TIP3  H2            3.5996699517       -2.7745311884       13.8167592792  CLST         305          1.0000000000
       916       306  TIP3  OH2           9.0019593596      -11.6937408244      -11.6207779006  CLST         306          1.0000000000
       917       306  TIP3  H1            9.5049341864      -11.7242465035      -12.4941763464  CLST         306          1.0000000000
       918       306  TIP3  H2            9.2782030982      -12.4805263050      -11.1735508294  CLST         306          1.0000000000
       919       307  TIP3  OH2           9.3238702597        7.8623753160       -7.7195360525  CLST         307          1.0000000000
       920       307  TIP3  H1            8.4592211237        8.2761444571       -7.8846518305  CLST         307          1.0000000000
       921       307  TIP3  H2            9.5484136182        8.2126024787       -6.8342280331  CLST         307          1.0000000000
       922       308  TIP3  OH2         -10.8552913256       -4.7020449568        8.7463503221  CLST         308          1.0000000000
       923       308  TIP3  H1          -10.8886555005       -5.4750620625        9.3729438564  CLST         308          1.0000000000
       924       308  TIP3  H2           -9.9103903100       -4.4057565911        8.8920505114  CLST         308          1.0000000000
       925       309  TIP3  OH2          -2.0007226708       -0.5741908971        5.5430647743  CLST         309          1.0000000000
       926       309  TIP3  H1           -2.7817594047       -0.8634856219        5.0228578812  CLST         309          1.0000000000
       927       309  TIP3  H2           -2.1029123714       -1.1507853671        6.3266909229  CLST         309          1.0000000000
       928       310  TIP3  OH2          -4.9464835548       -0.6783704557        7.3494657726  CLST         310          1.0000000000
       929       310  TIP3  H1           -4.1670470450       -0.2026418152        7.7343031858  CLST         310          1.0000000000
       930       310  TIP3  H2           -4.9787692356       -1.4261075645        8.0097524769  CLST         310          1.0000000000
       931       311  TIP3  OH2          -7.5665864485        8.5084398099      -12.3583467310  CLST         311          1.0000000000
       932       311  TIP3  H1           -7.1041225118        7.8020206516      -12.8957442352  CLST         311          1.0000000000
       933       311  TIP3  H2           -7.2065998031        8.1999210281      -11.4817182299  CLST         311          1.0000000000
       934       312  TIP3  OH2           6.5149899425       -0.8346805076       -6.0705326378  CLST         312          1.0000000000
       935       312  TIP3  H1            6.1754610873       -0.1069618919       -5.5197290464  CLST         312          1.0000000000
       936       312  TIP3  H2            6.2078239546       -1.5592559038       -5.4720759192  CLST         312          1.0000000000
       937       313  TIP3  OH2          -9.1121978648      -10.4273344236        7.1491330412  CLST         313          1.0000000000
       938       313  TIP3  H1           -8.3927319561       -9.7018276132        7.0641515206  CLST         313          1.0000000000
       939       313  TIP3  H2           -9.5033221048      -10.4295121315        6.2129891074  CLST         313          1.0000000000
       940       314  TIP3  OH2          -1.2099677866      -12.2817340195      -10.7369551968  CLST         314          1.0000000000
       941       314  TIP3  H1           -1.1220240842      -11.4778533195      -10.1195734363  CLST         314          1.0000000000
       942       314  TIP3  H2           -1.7209364562      -12.8573339199      -10.1248756518  CLST         314          1.0000000000
       943       315  TIP3  OH2          -1.4071701780       -0.6327652514       -6.5686034389  CLST         315          1.0000000000
       944       315  TIP3  H1           -0.5219346062       -0.9487060865       -6.8564270345  CLST         315          1.0000000000
       945       315  TIP3  H2           -1.2741379636       -0.3529292895       -5.6617933580  CLST         315          1.0000000000
       946       316  TIP3  OH2         -13.4600618962       -3.7412316723       -5.4155431076  CLST         316          1.0000000000
       947       316  TIP3  H1          -12.6922544392       -4.2905436093       -5.8113874066  CLST         316          1.0000000000
       948       316  TIP3  H2          -13.1606429728       -2.9294518622       -5.9007034049  CLST         316          1.0000000000
       949       317  TIP3  OH2          -6.3020477634        0.1401965310       -3.9245217817  CLST         317          1.0000000000
       950       317  TIP3  H1           -5.4231028046        0.0796854356       -3.4742242498  CLST         317          1.0000000000
       951       317  TIP3  H2           -6.7946229049        0.5237821468       -3.1295937854  CLST         317          1.0000000000
       952       318  TIP3  OH2          -3.7416802778       -9.7759533205       -9.5857420552  CLST         318          1.0000000000
       953       318  TIP3  H1           -3.9393586765       -9.9500883422       -8.6129544470  CLST         318          1.0000000000
       954       318  TIP3  H2           -2.7506493606       -9.7234756429       -9.4828065980  CLST         318          1.0000000000
       955       319  TIP3  OH2           5.6563173430       10.6863246459        8.5858448333  CLST         319          1.0000000000
       956       319  TIP3  H1            6.4918880790       10.2820187486        8.1731500790  CLST         319          1.0000000000
       957       319  TIP3  H2            5.9978799755       10.8659393048        9.4381114365  CLST         319          1.0000000000
       958       320  TIP3  OH2         -10.6813552081        1.1518779055      -14.6271684161  CLST         320          1.0000000000
       959       320  TIP3  H1           -9.8014866996        1.4152178311      -15.0162080516  CLST         320          1.0000000000
       960       320  TIP3  H2          -10.3295857583        0.3217138738      -14.2456837466  CLST         320          1.0000000000
       961       321  TIP3  OH2          -9.7303350655       10.3335079289       -9.7444656893  CLST         321          1.0000000000
       962       321  TIP3  H1          -10.5663583574       10.1004113329      -10.0201507290  CLST         321          1.0000000000
       963       321  TIP3  H2           -9.7150021663       10.1534099165      -11.4630650973  CLST         321          1.0000000000
       964       322  TIP3  OH2         -12.4518690801       -1.8028632805       -2.2101806974  CLST         322          1.0000000000
       965       322  TIP3  H1          -12.1149102212       -1.2844871895       -3.0102174752  CLST         322          1.0000000000
       966       322  TIP3  H2          -11.5856941875       -1.9089777512       -1.7192238323  CLST         322          1.0000000000
       967       323  TIP3  OH2          -1.1118775961        3.8960492464        4.3366751146  CLST         323          1.0000000000
       968       323  TIP3  H1           -0.9558580576        2.9650553731        4.6634952450  CLST         323          1.0000000000
       969       323  TIP3  H2           -1.0802639904        3.6610143967        3.3884341475  CLST         323          1.0000000000
       970       324  TIP3  OH2         -10.9407413751        6.1556521331        1.3840361037  CLST         324          1.0000000000
       971       324  TIP3  H1          -10.9864554543        5.3306407826        1.9008208561  CLST         324          1.0000000000
       972       324  TIP3  H2          -10.3064717383        6.6454151058        2.0501326953  CLST         324          1.0000000000
       973       325  TIP3  OH2          -4.5475244943        0.7124273909        3.7230037141  CLST         325          1.0000000000
       974       325  TIP3  H1           -5.5400410437        0.8193838356        3.5372472104  CLST         325          1.0000000000
       975       325  TIP3  H2           -4.5215712482        1.5258643012        4.2926494776  CLST         325          1.0000000000
       976       326  TIP3  OH2           8.9774449502        8.8361255156       -2.8000300374  CLST         326          1.0000000000
       977       326  TIP3  H1            8.6729400893        7.9223042256       -2.5866033856  CLST         326          1.0000000000
       978       326  TIP3  H2            8.3678163216        9.1190929677       -3.4830946230  CLST         326          1.0000000000
       979       327  TIP3  OH2          10.4586181561       -3.6880159915      -13.1552470299  CLST         327          1.0000000000
       980       327  TIP3  H1           10.5103085104       -3.1749560054      -13.8630964049  CLST         327          1.0000000000
       981       327  TIP3  H2           10.1451020654       -3.0670375647      -12.4469187934  CLST         327          1.0000000000
       982       328  TIP3  OH2           2.2188726251        7.0448016184       -9.7763027298  CLST         328          1.0000000000
       983       328  TIP3  H1            2.3482431436        6.2451063090       -9.3138478685  CLST         328          1.0000000000
       984       328  TIP3  H2            3.1917042822        6.9224623445      -10.0989167919  CLST         328          1.0000000000
       985       329  TIP3  OH2           1.3019564413      -11.6028156719       -2.4029667359  CLST         329          1.0000000000
       986       329  TIP3  H1            1.4915742186      -10.6837595686       -2.7825623153  CLST         329          1.0000000000
       987       329  TIP3  H2            2.2236683496      -11.7010336970       -1.9523441664  CLST         329          1.0000000000
       988       330  TIP3  OH2          -9.2827845847       -0.9544841910        3.1647215185  CLST         330          1.0000000000
       989       330  TIP3  H1           -9.6245215160       -1.9002660655        3.0920468954  CLST         330          1.0000000000
       990       330  TIP3  H2          -10.0352139236       -0.5905911026        3.6642465689  CLST         330          1.0000000000
       991       331  TIP3  OH2          12.1521984765        9.7779173198       -9.0966707948  CLST         331          1.0000000000
       992       331  TIP3  H1           12.9747816892        9.9506300351       -9.4987685316  CLST         331          1.0000000000
       993       331  TIP3  H2           12.0820808252        8.7738280988       -9.0973658319  CLST         331          1.0000000000
       994       332  TIP3  OH2          11.4449159014       -1.3157291475       -4.4138897851  CLST         332          1.0000000000
       995       332  TIP3  H1           12.3418231348       -1.5895295655       -5.0709842777  CLST         332          1.0000000000
       996       332  TIP3  H2           11.9061068168       -0.6195477076       -3.9439379965  CLST         332          1.0000000000
       997       333  TIP3  OH2          10.5620634932      -14.3176617091        8.0451598706  CLST         333          1.0000000000
       998       333  TIP3  H1            9.7169767645      -13.8534872386        8.2223333985  CLST         333          1.0000000000
       999       333  TIP3  H2           10.6555006666      -14.3911716608        7.1378373509  CLST         333          1.0000000000
      1000       334  TIP3  OH2         -10.6226991043       -9.7771262469        9.2044366201  CLST         334          1.0000000000
      1001       334  TIP3  H1          -11.4677488364       -9.9568719103        8.6593079863  CLST         334          1.0000000000
      1002       334  TIP3  H2          -10.0576779954      -10.1356912133        8.4803758094  CLST         334          1.0000000000
      1003       335  TIP3  OH2           6.9448560635       -9.8721423899        1.4152133464  CLST         335          1.0000000000
      1004       335  TIP3  H1            7.0503906436      -10.4131267351        2.2351653474  CLST         335          1.0000000000
      1005       335  TIP3  H2            6.0218385365      -10.0019356244        1.2169814252  CLST         335          1.0000000000
      1006       336  TIP3  OH2          -9.3439461879       -3.8264160153       -3.4048544090  CLST         336          1.0000000000
      1007       336  TIP3  H1           -9.6559278876       -4.5797667029       -3.9111772842  CLST         336          1.0000000000
      1008       336  TIP3  H2           -8.8684189221       -3.2480344805       -4.0256801588  CLST         336          1.0000000000
      1009       337  TIP3  OH2          -1.6299090754       -4.9195314919        8.0851832249  CLST         337          1.0000000000
      1010       337  TIP3  H1           -1.3569418173       -4.6424745054        9.0225053211  CLST         337          1.0000000000
      1011       337  TIP3  H2           -1.8648098707       -3.9746135203        7.7888088149  CLST         337          1.0000000000
      1012       338  TIP3  OH2          -0.4469949356        2.7410771032       10.8158556515  CLST         338          1.0000000000
      1013       338  TIP3  H1           -0.4413305691        2.5934326405        9.8493616698  CLST         338          1.0000000000
      1014       338  TIP3  H2           -0.1114381053        1.9236102691       11.1280038692  CLST         338          1.0000000000
      1015       339  TIP3  OH2           7.8743157092        7.9258254455        2.9300268312  CLST         339          1.0000000000
      1016       339  TIP3  H1            7.5156188289        8.6129915215        3.5529760944  CLST         339          1.0000000000
      1017       339  TIP3  H2            7.2320831664        7.9454529266        2.1745964682  CLST         339          1.0000000000
      1018       340  TIP3  OH2          -4.6604085504      -11.6082218821      -11.5040874065  CLST         340          1.0000000000
      1019       340  TIP3  H1           -4.2122944066      -11.0037840002      -10.8524291105  CLST         340          1.0000000000
      1020       340  TIP3  H2           -4.7114181309      -12.3717720046      -10.9407664985  CLST         340          1.0000000000
      1021       341  TIP3  OH2          -6.7905857802        4.6720054665        9.3734302038  CLST         341          1.0000000000
      1022       341  TIP3  H1           -5.8440142855        4.7400124755        9.5541233660  CLST         341          1.0000000000
      1023       341  TIP3  H2           -6.9541220219        3.7992561946        9.1955647006  CLST         341          1.0000000000
      1024       342  TIP3  OH2          -4.3992653599      -10.9354959551       13.4551354862  CLST         342          1.0000000000
      1025       342  TIP3  H1           -5.1244528802      -10.9233703999       12.8384937361  CLST         342          1.0000000000
      1026       342  TIP3  H2           -4.8952992839      -10.6377045359       14.2521223233  CLST         342          1.0000000000
      1027       343  TIP3  OH2           1.2639221886       -9.0672176903      -10.0162709474  CLST         343          1.0000000000
      1028       343  TIP3  H1            1.2956117338       -8.1574932217      -10.4013848331  CLST         343          1.0000000000
      1029       343  TIP3  H2            1.7729043992       -9.5435794076      -10.7265372105  CLST         343          1.0000000000
      1030       344  TIP3  OH2           5.5192239750       -3.8341205155        6.3841891763  CLST         344          1.0000000000
      1031       344  TIP3  H1            4.9441692615       -4.4755055063        6.8857819364  CLST         344          1.0000000000
      1032       344  TIP3  H2            6.0568292261       -4.5396311960        5.8945389943  CLST         344          1.0000000000
      1033       345  TIP3  OH2          12.9133134739        6.9392151509        8.9515145459  CLST         345          1.0000000000
      1034       345  TIP3  H1           12.1296576153        6.6444508634        8.3965869047  CLST         345          1.0000000000
      1035       345  TIP3  H2           12.2916457103        7.2199980383        9.9192316302  CLST         345          1.0000000000
      1036       346  TIP3  OH2           9.5079263022        9.4923611142        1.1788222375  CLST         346          1.0000000000
      1037       346  TIP3  H1            9.7897694877       10.3479833916        1.6962004795  CLST         346          1.0000000000
      1038       346  TIP3  H2            9.1613196311        9.0376125045        1.9907605817  CLST         346          1.0000000000
      1039       347  TIP3  OH2          -5.0041925489        2.8986886862       -9.6481091478  CLST         347          1.0000000000
      1040       347  TIP3  H1           -5.7678826652        3.3002438976       -9.1633184785  CLST         347          1.0000000000
      1041       347  TIP3  H2           -4.2809894868        3.0865139600       -9.0240126096  CLST         347          1.0000000000
      1042       348  TIP3  OH2          -1.2589265423        6.0861561101        5.6897652747  CLST         348          1.0000000000
      1043       348  TIP3  H1           -1.4594952124        5.2327542678        5.2222210001  CLST         348          1.0000000000
      1044       348  TIP3  H2           -0.6809327530        6.5163504378        4.9587132153  CLST         348          1.0000000000
      1045       349  TIP3  OH2          -4.3283799148        5.2683889564       -2.6722025994  CLST         349          1.0000000000
      1046       349  TIP3  H1           -4.0488078083        4.9985585708       -3.6170141933  CLST         349          1.0000000000
      1047       349  TIP3  H2           -3.6712543665        5.9883063309       -2.5453165062  CLST         349          1.0000000000
      1048       350  TIP3  OH2          -2.4947057149        9.0233368366        5.1073497008  CLST         350          1.0000000000
      1049       350  TIP3  H1           -3.0881093616        8.7729509683        4.3251616915  CLST         350          1.0000000000
      1050       350  TIP3  H2           -2.2931217926        8.0990300756        5.4075873205  CLST         350          1.0000000000
      1051       351  TIP3  OH2           4.8118169930       -7.7241161133       -7.7363946414  CLST         351          1.0000000000
      1052       351  TIP3  H1            3.9772820173       -8.3114771161       -7.8470933079  CLST         351          1.0000000000
      1053       351  TIP3  H2            4.8191568217       -7.3022917707       -8.6114031327  CLST         351          1.0000000000
      1054       352  TIP3  OH2         -10.4935893069      -11.3388538738        1.6961527863  CLST         352          1.0000000000
      1055       352  TIP3  H1           -9.4984529802      -11.1647487581        1.6713849442  CLST         352          1.0000000000
      1056       352  TIP3  H2          -10.7450933343      -10.5439033376        1.0053174869  CLST         352          1.0000000000
      1057       353  TIP3  OH2          10.8719235519       -8.1204451819       -8.6850155973  CLST         353          1.0000000000
      1058       353  TIP3  H1            9.9573438645       -8.4869829013       -8.6759545370  CLST         353          1.0000000000
      1059       353  TIP3  H2           11.3376310514       -8.5614997648       -7.9922083806  CLST         353          1.0000000000
      1060       354  TIP3  OH2           6.9323726291      -10.6984645356        4.0669421682  CLST         354          1.0000000000
      1061       354  TIP3  H1            7.6313823162      -11.0029979409        4.7549035668  CLST         354          1.0000000000
      1062       354  TIP3  H2            6.7338290838       -9.8480501167        4.5311081784  CLST         354          1.0000000000
      1063       355  TIP3  OH2          -7.2414981065        8.9185205102       -8.8244083698  CLST         355          1.0000000000
      1064       355  TIP3  H1           -6.9677344990        9.8568941242       -8.6083751184  CLST         355          1.0000000000
      1065       355  TIP3  H2           -8.0849887844        9.2434324342       -9.3479729754  CLST         355          1.0000000000
      1066       356  TIP3  OH2          12.6082985715        0.9566458674       -1.8598618527  CLST         356          1.0000000000
      1067       356  TIP3  H1           11.6543408536        0.6008701795       -2.1033722339  CLST         356          1.0000000000
      1068       356  TIP3  H2           12.7010537895        0.6366063563       -0.9165395187  CLST         356          1.0000000000
      1069       357  TIP3  OH2          -0.6010933686       -0.6045929682       -1.9907827983  CLST         357          1.0000000000
      1070       357  TIP3  H1            0.2627586116       -0.9765067038       -2.2909536024  CLST         357          1.0000000000
      1071       357  TIP3  H2           -0.6849824201       -0.1101114211       -2.8836396077  CLST         357          1.0000000000
      1072       358  TIP3  OH2          -5.5963457236        7.0653595262       -7.5953536797  CLST         358          1.0000000000
      1073       358  TIP3  H1           -6.2746654635        7.6380678437       -8.0754694608  CLST         358          1.0000000000
      1074       358  TIP3  H2           -6.2796706077        6.6071016484       -7.0321052267  CLST         358          1.0000000000
      1075       359  TIP3  OH2          -5.1885819582       12.2496163468        6.1467079572  CLST         359          1.0000000000
      1076       359  TIP3  H1           -5.5185990475       11.9883606085        5.2234796784  CLST         359          1.0000000000
      1077       359  TIP3  H2           -4.2623968690       12.4548435710        5.9261246811  CLST         359          1.0000000000
      1078       360  TIP3  OH2          -7.0600806354        5.8595098879       -3.3925714775  CLST         360          1.0000000000
      1079       360  TIP3  H1           -7.2092984218        6.7158639813       -2.9473055558  CLST         360          1.0000000000
      1080       360  TIP3  H2           -6.1561131902        5.6572525937       -3.0334480280  CLST         360          1.0000000000
      1081       361  TIP3  OH2          -1.5328530178       -1.0126633577       10.1418307954  CLST         361          1.0000000000
      1082       361  TIP3  H1           -1.4694117390       -0.6349383673       11.0464546499  CLST         361          1.0000000000
      1083       361  TIP3  H2           -1.7552553064       -1.9457813268       10.4547488290  CLST         361          1.0000000000
      1084       362  TIP3  OH2         -10.3824840908        2.7187876113        0.7369535669  CLST         362          1.0000000000
      1085       362  TIP3  H1          -10.6380210020        3.4381683062        0.1133188030  CLST         362          1.0000000000
      1086       362  TIP3  H2          -10.7281909866        1.9319352121        0.2367691185  CLST         362          1.0000000000
      1087       363  TIP3  OH2          10.5067042542        2.3963874720       10.1845823273  CLST         363          1.0000000000
      1088       363  TIP3  H1           10.6315714807        1.3989020552        9.9168204072  CLST         363          1.0000000000
      1089       363  TIP3  H2           11.3273788670        2.6152286313       10.4170823237  CLST         363          1.0000000000
      1090       364  TIP3  OH2           7.5119248543       -5.6793944883       -6.2898757492  CLST         364          1.0000000000
      1091       364  TIP3  H1            6.6457920787       -5.2884465851       -6.6001147429  CLST         364          1.0000000000
      1092       364  TIP3  H2            8.1902078293       -5.5516694557       -7.0202497585  CLST         364          1.0000000000
      1093       365  TIP3  OH2          -6.1150498480       -6.8484807144        2.5207818934  CLST         365          1.0000000000
      1094       365  TIP3  H1           -6.5086400594       -5.9791868393        2.5539856022  CLST         365          1.0000000000
      1095       365  TIP3  H2           -6.9064611181       -7.4422855176        2.6317368941  CLST         365          1.0000000000
      1096       366  TIP3  OH2           1.7099176955       -1.3793891926       -2.7950598447  CLST         366          1.0000000000
      1097       366  TIP3  H1            2.6167199722       -1.3968540925       -2.4324015015  CLST         366          1.0000000000
      1098       366  TIP3  H2            1.8520768545       -1.0142041326       -3.6934203893  CLST         366          1.0000000000
      1099       367  TIP3  OH2          -5.2729318874       11.6267187710       12.2375091217  CLST         367          1.0000000000
      1100       367  TIP3  H1           -6.2744513072       11.7199283988       11.9085389127  CLST         367          1.0000000000
      1101       367  TIP3  H2           -5.2309799111       12.0897351499       12.9867030176  CLST         367          1.0000000000
      1102       368  TIP3  OH2          -2.7344770813        6.5673133092        1.2709776362  CLST         368          1.0000000000
      1103       368  TIP3  H1           -2.8706251788        7.3520457555        0.6402426272  CLST         368          1.0000000000
      1104       368  TIP3  H2           -3.0972437137        7.0549997223        2.0483434157  CLST         368          1.0000000000
      1105       369  TIP3  OH2         -11.7090465044       -1.6199181178       -6.4559482890  CLST         369          1.0000000000
      1106       369  TIP3  H1          -10.8131932492       -2.0257493201       -6.5488147946  CLST         369          1.0000000000
      1107       369  TIP3  H2          -11.9449002467       -1.9424523254       -7.4249429199  CLST         369          1.0000000000
      1108       370  TIP3  OH2         -12.1341910104        5.5998223245      -11.5666060770  CLST         370          1.0000000000
      1109       370  TIP3  H1          -12.4366945229        4.9360608274      -12.1779056998  CLST         370          1.0000000000
      1110       370  TIP3  H2          -12.5650091722        6.2563846884      -11.2448881913  CLST         370          1.0000000000
      1111       371  TIP3  OH2           2.1423740129        7.7518790636        5.9146998524  CLST         371          1.0000000000
      1112       371  TIP3  H1            2.0248360928        7.4322961288        6.8418121045  CLST         371          1.0000000000
      1113       371  TIP3  H2            3.1019089398        7.8808285307        5.9706165605  CLST         371          1.0000000000
      1114       372  TIP3  OH2           8.1461889221       -7.4461527464        9.1490580962  CLST         372          1.0000000000
      1115       372  TIP3  H1            8.7332675871       -7.4891059440        8.3845101504  CLST         372          1.0000000000
      1116       372  TIP3  H2            8.6739362053       -7.8643591223        9.8875718298  CLST         372          1.0000000000
      1117       373  TIP3  OH2          11.1749992520       -0.4519359233        6.7362631704  CLST         373          1.0000000000
      1118       373  TIP3  H1           11.5043191342        0.3737909102        6.2911741832  CLST         373          1.0000000000
      1119       373  TIP3  H2           10.5319296813       -0.5109931476        6.0012680045  CLST         373          1.0000000000
      1120       374  TIP3  OH2          -9.3014517408        4.7689992167      -12.3131042732  CLST         374          1.0000000000
      1121       374  TIP3  H1           -9.8558767999        5.1077961529      -13.0504701747  CLST         374          1.0000000000
      1122       374  TIP3  H2          -10.0507770896        4.8424686388      -11.6809293699  CLST         374          1.0000000000
      1123       375  TIP3  OH2           9.9097911382       -5.4971455800       -2.7990966584  CLST         375          1.0000000000
      1124       375  TIP3  H1           10.2750565717       -5.1614551288       -3.6416598221  CLST         375          1.0000000000
      1125       375  TIP3  H2           10.2339841148       -6.4430651664       -2.9121836460  CLST         375          1.0000000000
      1126       376  TIP3  OH2          -2.2433347331      -11.0606697254       11.9700753494  CLST         376          1.0000000000
      1127       376  TIP3  H1           -2.9084585044      -11.1340632290       12.8915708236  CLST         376          1.0000000000
      1128       376  TIP3  H2           -2.9904249516      -11.1522924635       11.3656103334  CLST         376          1.0000000000
      1129       377  TIP3  OH2         -10.0366034284       12.7417862449       10.4316924828  CLST         377          1.0000000000
      1130       377  TIP3  H1           -9.0982138091       12.5332161278       10.6052724006  CLST         377          1.0000000000
      1131       377  TIP3  H2           -9.9545682815       13.2013180084        9.5677606632  CLST         377          1.0000000000
      1132       378  TIP3  OH2           2.4186950845       -7.8910428445        7.4989703681  CLST         378          1.0000000000
      1133       378  TIP3  H1            2.5495959731       -6.9094190097        7.5963927966  CLST         378          1.0000000000
      1134       378  TIP3  H2            1.8096710962       -8.2179981221        8.2303032348  CLST         378          1.0000000000
      1135       379  TIP3  OH2          -9.5122438782        9.3584371352       -1.1933671883  CLST         379          1.0000000000
      1136       379  TIP3  H1           -8.9623991333        9.4169118643       -0.3776268207  CLST         379          1.0000000000
      1137       379  TIP3  H2           -9.6930876311       10.3316693142       -1.5022375080  CLST         379          1.0000000000
      1138       380  TIP3  OH2           3.0268640625       -4.1595340587      -11.2805715104  CLST         380          1.0000000000
      1139       380  TIP3  H1            2.5950766013       -3.4556219435      -11.9009522204  CLST         380          1.0000000000
      1140       380  TIP3  H2            3.4612592921       -4.6700368749      -12.0016248163  CLST         380          1.0000000000
      1141       381  TIP3  OH2          10.2275322052        4.2798179259        3.3516968886  CLST         381          1.0000000000
      1142       381  TIP3  H1            9.5643206562        4.7003143352        3.9730775336  CLST         381          1.0000000000
      1143       381  TIP3  H2           10.8386663363        5.0107596240        3.2522695768  CLST         381          1.0000000000
      1144       382  TIP3  OH2           1.8420880412       -5.4363218842        5.6205622576  CLST         382          1.0000000000
      1145       382  TIP3  H1            2.5706350578       -5.0802828079        6.1635043236  CLST         382          1.0000000000
      1146       382  TIP3  H2            2.4549251885       -6.1025289316        5.1351293008  CLST         382          1.0000000000
      1147       383  TIP3  OH2          10.0494816915        8.9229086119        4.9052697803  CLST         383          1.0000000000
      1148       383  TIP3  H1            9.0992133397        8.9900150859        4.5833309061  CLST         383          1.0000000000
      1149       383  TIP3  H2           10.1924188885        9.8884446976        5.0085075482  CLST         383          1.0000000000
      1150       384  TIP3  OH2          -3.3154392020       -1.7866008981       -8.4064496326  CLST         384          1.0000000000
      1151       384  TIP3  H1           -2.7314087211       -2.6301455064       -8.4075656104  CLST         384          1.0000000000
      1152       384  TIP3  H2           -2.7376203210       -1.3061267256       -7.7645001911  CLST         384          1.0000000000
      1153       385  TIP3  OH2           3.5494877347      -11.8745315431       -0.8312339049  CLST         385          1.0000000000
      1154       385  TIP3  H1            4.4600554382      -12.3548728593       -0.7897326894  CLST         385          1.0000000000
      1155       385  TIP3  H2            3.7366718856      -11.0949638690       -0.2901457087  CLST         385          1.0000000000
      1156       386  TIP3  OH2          -4.3475954676        9.4691604866       -6.2306511161  CLST         386          1.0000000000
      1157       386  TIP3  H1           -4.6548119638        8.5190277881       -6.5179045509  CLST         386          1.0000000000
      1158       386  TIP3  H2           -4.3420280225        9.7700508568       -7.2160883192  CLST         386          1.0000000000
      1159       387  TIP3  OH2          -9.7410152112       10.8079153616        2.6136170572  CLST         387          1.0000000000
      1160       387  TIP3  H1          -10.5777181797       10.6080715107        2.0715187113  CLST         387          1.0000000000
      1161       387  TIP3  H2           -9.0600382589       10.4076854786        2.0484842098  CLST         387          1.0000000000
      1162       388  TIP3  OH2          -1.8462083937      -12.3204629970        5.9167316823  CLST         388          1.0000000000
      1163       388  TIP3  H1           -2.1005093748      -11.4665720737        5.5537092989  CLST         388          1.0000000000
      1164       388  TIP3  H2           -1.8293836666      -12.1505646892        6.8975235149  CLST         388          1.0000000000
      1165       389  TIP3  OH2          -8.2601118248        3.3579008343       -3.5661545009  CLST         389          1.0000000000
      1166       389  TIP3  H1           -7.7494257291        4.2289848186       -3.5084306628  CLST         389          1.0000000000
      1167       389  TIP3  H2           -9.1833802491        3.6892313388       -3.2934380629  CLST         389          1.0000000000
      1168       390  TIP3  OH2          -5.9344339015       -3.9780240644        4.5778530587  CLST         390          1.0000000000
      1169       390  TIP3  H1           -5.6027120210       -3.0251992618        4.6844819532  CLST         390          1.0000000000
      1170       390  TIP3  H2           -5.2528885130       -4.1931159001        4.0000826999  CLST         390          1.0000000000
      1171       391  TIP3  OH2          -8.6840081780       -8.8592847116       -6.1046220006  CLST         391          1.0000000000
      1172       391  TIP3  H1           -9.1315792911       -9.6125475747       -6.5546287476  CLST         391          1.0000000000
      1173       391  TIP3  H2           -7.9070863481       -9.3303453624       -5.7113741586  CLST         391          1.0000000000
      1174       392  TIP3  OH2           1.0184312656       -1.9793166453       10.1277761367  CLST         392          1.0000000000
      1175       392  TIP3  H1            0.5449948011       -2.8246667888       10.3017146804  CLST         392          1.0000000000
      1176       392  TIP3  H2            0.1809754419       -1.4486269483        9.9411594862  CLST         392          1.0000000000
      1177       393  TIP3  OH2          10.5525709536      -12.2913058388       -0.6585616999  CLST         393          1.0000000000
      1178       393  TIP3  H1           12.7267473190      -11.4478421145       -1.3589873605  CLST         393          1.0000000000
      1179       393  TIP3  H2           11.2632432962      -12.3699599196       -1.3220172525  CLST         393          1.0000000000
      1180       394  TIP3  OH2           0.4932940877       11.7344743399       -8.5284168241  CLST         394          1.0000000000
      1181       394  TIP3  H1            0.8924856527       11.9856666296       -7.6840139235  CLST         394          1.0000000000
      1182       394  TIP3  H2            0.7481619288       10.7744368357       -8.4991913307  CLST         394          1.0000000000
      1183       395  TIP3  OH2           6.6637248687        7.5248961499       -4.6036835851  CLST         395          1.0000000000
      1184       395  TIP3  H1            5.8051266950        8.0616873100       -4.6843341712  CLST         395          1.0000000000
      1185       395  TIP3  H2            6.3691158547        6.7991737580       -5.3567786962  CLST         395          1.0000000000
      1186       396  TIP3  OH2          -1.0921490872       -9.8462165708       -9.0228518221  CLST         396          1.0000000000
      1187       396  TIP3  H1           -1.0687136239       -9.7682918080       -7.9679193909  CLST         396          1.0000000000
      1188       396  TIP3  H2           -0.1306525545       -9.6166240415       -9.2445068386  CLST         396          1.0000000000
      1189       397  TIP3  OH2          11.4930012374        7.2748828043       -9.0114994797  CLST         397          1.0000000000
      1190       397  TIP3  H1           11.4797935313        6.4689749605       -8.4246528302  CLST         397          1.0000000000
      1191       397  TIP3  H2           10.6015028086        7.5805369574       -8.6681095918  CLST         397          1.0000000000
      1192       398  TIP3  OH2          10.6820699617        7.6433102107       -4.7933687102  CLST         398          1.0000000000
      1193       398  TIP3  H1           10.4963932829        8.2946537926       -4.0934789337  CLST         398          1.0000000000
      1194       398  TIP3  H2           11.2056022014        6.9807384902       -4.2807023470  CLST         398          1.0000000000
      1195       399  TIP3  OH2           1.8336589566       11.1673083851        4.8377013773  CLST         399          1.0000000000
      1196       399  TIP3  H1            0.9596057277       11.1972718556        5.2491059687  CLST         399          1.0000000000
      1197       399  TIP3  H2            2.3291092909       10.8004318023        5.5994160589  CLST         399          1.0000000000
      1198       400  TIP3  OH2           3.8125296501       -3.0063194758       -4.9611327927  CLST         400          1.0000000000
      1199       400  TIP3  H1            4.3858070198       -2.8999380452       -4.1658323767  CLST         400          1.0000000000
      1200       400  TIP3  H2            4.3783721601       -3.4504300860       -5.6742093955  CLST         400          1.0000000000
      1201       401  TIP3  OH2         -15.0627868163        9.9039341128        5.4598166392  CLST         401          1.0000000000
      1202       401  TIP3  H1          -14.7573310602       10.5191194568        6.1881303003  CLST         401          1.0000000000
      1203       401  TIP3  H2          -15.4361342332        9.2483054173        6.1487487085  CLST         401          1.0000000000
      1204       402  TIP3  OH2           1.7723571942       -1.6977315330       12.8244008236  CLST         402          1.0000000000
      1205       402  TIP3  H1            1.5799398256       -2.6686285018       12.9163440409  CLST         402          1.0000000000
      1206       402  TIP3  H2            1.6818120299       -1.7224082724       11.8473624105  CLST         402          1.0000000000
      1207       403  TIP3  OH2          -1.9513688700       -6.8618899612       -0.7177567881  CLST         403          1.0000000000
      1208       403  TIP3  H1           -1.9144915366       -6.4686075440       -1.4813618213  CLST         403          1.0000000000
      1209       403  TIP3  H2           -1.8776570811       -7.7679551502       -1.1483040251  CLST         403          1.0000000000
      1210       404  TIP3  OH2          -4.8150454876       -2.4244134788        9.3126815897  CLST         404          1.0000000000
      1211       404  TIP3  H1           -5.1024520194       -2.7386192089       10.2155502053  CLST         404          1.0000000000
      1212       404  TIP3  H2           -5.1778018976       -3.2415702767        8.8823545088  CLST         404          1.0000000000
      1213       405  TIP3  OH2         -11.9137557678        7.1691091328       11.3264277093  CLST         405          1.0000000000
      1214       405  TIP3  H1          -11.5821401725        5.5535034127       10.5916223402  CLST         405          1.0000000000
      1215       405  TIP3  H2          -12.6250127235        7.5493354565       11.7930458930  CLST         405          1.0000000000
      1216       406  TIP3  OH2           0.8786275024        7.6517998255      -12.2692806242  CLST         406          1.0000000000
      1217       406  TIP3  H1            1.0190235068        8.6860721628      -12.4178721868  CLST         406          1.0000000000
      1218       406  TIP3  H2            1.2724977510        7.6237632245      -11.3622910992  CLST         406          1.0000000000
      1219       407  TIP3  OH2          10.4834419899      -13.2113873210        5.0853996401  CLST         407          1.0000000000
      1220       407  TIP3  H1           10.3962722348      -13.1025398015        4.0688733508  CLST         407          1.0000000000
      1221       407  TIP3  H2           11.3074644707      -12.2157171623        5.2384173171  CLST         407          1.0000000000
      1222       408  TIP3  OH2          -2.9143449566      -11.6612328030        2.0881424303  CLST         408          1.0000000000
      1223       408  TIP3  H1           -2.1833646594      -11.0250650443        2.0668187731  CLST         408          1.0000000000
      1224       408  TIP3  H2           -2.3748069709      -12.4839486047        2.3024960319  CLST         408          1.0000000000
      1225       409  TIP3  OH2           1.0960279561       -9.4936599777        9.6798033400  CLST         409          1.0000000000
      1226       409  TIP3  H1            0.7329696150       -9.0612209681       10.5003049224  CLST         409          1.0000000000
      1227       409  TIP3  H2            1.4514363084      -10.2277997060       10.2314642645  CLST         409          1.0000000000
      1228       410  TIP3  OH2           9.7773717869       -7.0967258748       -5.2210130541  CLST         410          1.0000000000
      1229       410  TIP3  H1            8.8787765949       -6.8913758181       -5.5484247904  CLST         410          1.0000000000
      1230       410  TIP3  H2           10.2583885885       -6.4471383319       -5.6388709302  CLST         410          1.0000000000
      1231       411  TIP3  OH2         -10.0553290953       -2.2201642961       -1.4314736411  CLST         411          1.0000000000
      1232       411  TIP3  H1           -9.4442597837       -1.9221803172       -0.9040558705  CLST         411          1.0000000000
      1233       411  TIP3  H2           -9.7499186557       -2.8986530966       -2.0857604248  CLST         411          1.0000000000
      1234       412  TIP3  OH2           6.6935917025      -10.4353620704      -11.9560725136  CLST         412          1.0000000000
      1235       412  TIP3  H1            5.9756091861      -10.7795670078      -11.3706731954  CLST         412          1.0000000000
      1236       412  TIP3  H2            7.3434649436      -11.1179766583      -11.9024064289  CLST         412          1.0000000000
      1237       413  TIP3  OH2           7.2587573923       13.1550101538        0.3908276182  CLST         413          1.0000000000
      1238       413  TIP3  H1            7.5468771148       12.4567652534       -0.2250430581  CLST         413          1.0000000000
      1239       413  TIP3  H2            8.0759462361       13.4740055784        0.8518855306  CLST         413          1.0000000000
      1240       414  TIP3  OH2           1.3241631508       -2.6258738699      -12.5617726909  CLST         414          1.0000000000
      1241       414  TIP3  H1            0.5091924594       -2.2475199578      -12.2256034466  CLST         414          1.0000000000
      1242       414  TIP3  H2            1.3758380662       -2.5832091262      -13.5466635361  CLST         414          1.0000000000
      1243       415  TIP3  OH2           4.2450682596        5.3202776267       -8.0535324976  CLST         415          1.0000000000
      1244       415  TIP3  H1            3.4493469735        4.2954436663       -7.8422473484  CLST         415          1.0000000000
      1245       415  TIP3  H2            4.3944825441        4.2468709111       -8.4464691428  CLST         415          1.0000000000
      1246       416  TIP3  OH2           5.6220264127       12.3798446123       -7.8837376256  CLST         416          1.0000000000
      1247       416  TIP3  H1            5.3345618693       13.2231880105       -7.9735635058  CLST         416          1.0000000000
      1248       416  TIP3  H2            6.5351483116       12.3146143923       -8.3139656007  CLST         416          1.0000000000
      1249       417  TIP3  OH2          12.5224797866      -11.3075557838        2.9000270207  CLST         417          1.0000000000
      1250       417  TIP3  H1           11.2313173642      -11.2622265469        2.1078073932  CLST         417          1.0000000000
      1251       417  TIP3  H2           12.0382642172      -10.5881726010        2.1251179262  CLST         417          1.0000000000
      1252       418  TIP3  OH2          -9.2499248416       -1.5135215010        8.5466719810  CLST         418          1.0000000000
      1253       418  TIP3  H1           -8.7418899895       -1.0612628428        7.8633809292  CLST         418          1.0000000000
      1254       418  TIP3  H2           -9.1996192517       -0.8935370423        9.2658938517  CLST         418          1.0000000000
      1255       419  TIP3  OH2          14.8551381052        0.1173257843       -6.1146497354  CLST         419          1.0000000000
      1256       419  TIP3  H1           14.6309059957        1.1264592218       -3.9220797662  CLST         419          1.0000000000
      1257       419  TIP3  H2           14.8824996137        0.9708126360       -5.4902700348  CLST         419          1.0000000000
      1258       420  TIP3  OH2          -8.3161764899       -8.2223623334        3.6397382163  CLST         420          1.0000000000
      1259       420  TIP3  H1           -9.1005303404       -7.7024030278        3.3225301356  CLST         420          1.0000000000
      1260       420  TIP3  H2           -8.8118527127       -9.0719239012        3.6254047331  CLST         420          1.0000000000
      1261       421  TIP3  OH2           3.5484706286       -6.4565636974      -13.2375073964  CLST         421          1.0000000000
      1262       421  TIP3  H1            4.5165691565       -6.7236762665      -13.1602455751  CLST         421          1.0000000000
      1263       421  TIP3  H2            3.1546565892       -7.4052455362      -13.3128435894  CLST         421          1.0000000000
      1264       422  TIP3  OH2          -1.9174155801       -9.2797897858       -1.6905472624  CLST         422          1.0000000000
      1265       422  TIP3  H1           -1.2240146599       -9.9184390905       -1.9065934266  CLST         422          1.0000000000
      1266       422  TIP3  H2           -2.7458854245       -9.9244551309       -1.7903770693  CLST         422          1.0000000000
      1267       423  TIP3  OH2           1.7325022614        4.8655442796       -4.1596285173  CLST         423          1.0000000000
      1268       423  TIP3  H1            2.5440160009        5.2706696827       -4.6090581081  CLST         423          1.0000000000
      1269       423  TIP3  H2            2.1626778495        4.4582574340       -3.3721587499  CLST         423          1.0000000000
      1270       424  TIP3  OH2          -8.9222233215        4.3692703989        4.4933757808  CLST         424          1.0000000000
      1271       424  TIP3  H1           -8.6734912652        3.4523294492        4.2430961350  CLST         424          1.0000000000
      1272       424  TIP3  H2           -8.2727250473        4.9382800280        4.0642755938  CLST         424          1.0000000000
      1273       425  TIP3  OH2           8.1899316986      -12.6357923824        8.3739802113  CLST         425          1.0000000000
      1274       425  TIP3  H1            8.4954295033      -12.4873560631        7.4322499658  CLST         425          1.0000000000
      1275       425  TIP3  H2            7.4673398852      -11.9937366632        8.4235181290  CLST         425          1.0000000000
      1276       426  TIP3  OH2           8.3186895092        2.2470023546        8.3034051809  CLST         426          1.0000000000
      1277       426  TIP3  H1            9.1489327850        1.9164192018        8.6892687661  CLST         426          1.0000000000
      1278       426  TIP3  H2            8.5657154660        3.1961164689        8.1818613886  CLST         426          1.0000000000
      1279       427  TIP3  OH2          11.5096235090        7.4266710572       11.0062445374  CLST         427          1.0000000000
      1280       427  TIP3  H1           11.4152831628        7.8195004200       11.9113356887  CLST         427          1.0000000000
      1281       427  TIP3  H2           10.6253533225        6.9954296050       10.9205514751  CLST         427          1.0000000000
      1282       428  TIP3  OH2          12.5978464423        7.6611974279        1.1691017226  CLST         428          1.0000000000
      1283       428  TIP3  H1           12.3836008102        8.0503692032        0.2336952483  CLST         428          1.0000000000
      1284       428  TIP3  H2           13.5894786063        7.5704167855        1.0349639672  CLST         428          1.0000000000
      1285       429  TIP3  OH2          12.1016096490       -9.8101646737       -0.7758350742  CLST         429          1.0000000000
      1286       429  TIP3  H1           12.4435111155       -9.3283719276        0.6638389421  CLST         429          1.0000000000
      1287       429  TIP3  H2           11.7262329697       -8.7868026164       -0.8953737035  CLST         429          1.0000000000
      1288       430  TIP3  OH2           9.8289317389       -6.6827316321        3.5706441096  CLST         430          1.0000000000
      1289       430  TIP3  H1            9.6710212020       -7.1888120183        2.7216823144  CLST         430          1.0000000000
      1290       430  TIP3  H2           10.7944205461       -6.5572381592        3.4081881088  CLST         430          1.0000000000
      1291       431  TIP3  OH2         -12.6541992541        9.3197057077       -2.7248242532  CLST         431          1.0000000000
      1292       431  TIP3  H1          -13.6150169036        9.2249808007       -2.8746286445  CLST         431          1.0000000000
      1293       431  TIP3  H2          -14.2238539656        9.5246004626       -1.0647575275  CLST         431          1.0000000000
      1294       432  TIP3  OH2           5.5253159354        8.5143754965      -10.0754387579  CLST         432          1.0000000000
      1295       432  TIP3  H1            5.8789990944        8.9063026952       -9.2382633239  CLST         432          1.0000000000
      1296       432  TIP3  H2            4.7307228692        9.1340306208      -10.1002797393  CLST         432          1.0000000000
      1297       433  TIP3  OH2          -0.7730285182        8.1644656511        7.8718253879  CLST         433          1.0000000000
      1298       433  TIP3  H1           -1.6223670822        8.6462834953        8.0616102933  CLST         433          1.0000000000
      1299       433  TIP3  H2           -1.0637005456        7.4962819969        7.2394804222  CLST         433          1.0000000000
      1300       434  TIP3  OH2          -7.4075199991        0.8293928577        3.7830707688  CLST         434          1.0000000000
      1301       434  TIP3  H1           -7.5974036998        1.5001130015        3.0124118506  CLST         434          1.0000000000
      1302       434  TIP3  H2           -7.9341984755        0.0337915193        3.4310367260  CLST         434          1.0000000000
      1303       435  TIP3  OH2           9.8861226983       -0.5611994796       -7.1665972768  CLST         435          1.0000000000
      1304       435  TIP3  H1            9.9632018687       -0.8009996702       -6.1787268226  CLST         435          1.0000000000
      1305       435  TIP3  H2           10.2734929654        0.3080889476       -7.1803543684  CLST         435          1.0000000000
      1306       436  TIP3  OH2           3.6082926995       10.5521299213       -9.1589559100  CLST         436          1.0000000000
      1307       436  TIP3  H1            3.9425207935       11.2119772295       -8.5584676730  CLST         436          1.0000000000
      1308       436  TIP3  H2            2.8453744900       10.2232735293       -8.7119467554  CLST         436          1.0000000000
      1309       437  TIP3  OH2          -8.3977804748       -0.7225598241       -8.1719985846  CLST         437          1.0000000000
      1310       437  TIP3  H1           -8.6666755957       -0.3337987114       -9.0244130733  CLST         437          1.0000000000
      1311       437  TIP3  H2           -7.4590586605       -0.4727285381       -8.0953965194  CLST         437          1.0000000000
      1312       438  TIP3  OH2          -3.4630683577        5.4434076448       -8.0502097489  CLST         438          1.0000000000
      1313       438  TIP3  H1           -4.2796224202        6.0146249944       -7.7787253925  CLST         438          1.0000000000
      1314       438  TIP3  H2           -3.4990224418        5.8792565768       -8.9765823544  CLST         438          1.0000000000
      1315       439  TIP3  OH2          14.1060282304        1.7419046769       -3.6619169914  CLST         439          1.0000000000
      1316       439  TIP3  H1           12.9356915597        2.7596412886       -4.3392649351  CLST         439          1.0000000000
      1317       439  TIP3  H2           13.2163849626        1.4705619029       -2.3615685375  CLST         439          1.0000000000
      1318       440  TIP3  OH2           1.0201691719      -12.8151094936      -11.4481886850  CLST         440          1.0000000000
      1319       440  TIP3  H1            0.0850587568      -12.4403796501      -11.4723853973  CLST         440          1.0000000000
      1320       440  TIP3  H2            0.9512782662      -13.7400035592      -11.2708922599  CLST         440          1.0000000000
      1321       441  TIP3  OH2          -1.6145525514       -4.3568132411        3.0700366233  CLST         441          1.0000000000
      1322       441  TIP3  H1           -1.7811371330       -3.4898398042        3.0347601306  CLST         441          1.0000000000
      1323       441  TIP3  H2           -1.3960825823       -4.6569543138        4.0128626222  CLST         441          1.0000000000
      1324       442  TIP3  OH2           3.0937656932       -9.7322699837       -8.1058223414  CLST         442          1.0000000000
      1325       442  TIP3  H1            3.7730235198      -10.1368055405       -8.7086280781  CLST         442          1.0000000000
      1326       442  TIP3  H2            2.3328309786       -9.5216227237       -8.7192333340  CLST         442          1.0000000000
      1327       443  TIP3  OH2           1.4747377073       10.3848607298      -12.9138802300  CLST         443          1.0000000000
      1328       443  TIP3  H1            1.6792848539       11.5531198031      -12.0824648496  CLST         443          1.0000000000
      1329       443  TIP3  H2            2.1269513760       10.4625037227      -13.4153703666  CLST         443          1.0000000000
      1330       444  TIP3  OH2          -8.0601072807        1.3189070426       -1.9483465955  CLST         444          1.0000000000
      1331       444  TIP3  H1           -8.0759160978        2.1617495768       -2.5280164145  CLST         444          1.0000000000
      1332       444  TIP3  H2           -7.6283968451        1.7717499818       -1.1945965623  CLST         444          1.0000000000
      1333       445  TIP3  OH2         -11.5637257046       -5.0289631749        6.1092495004  CLST         445          1.0000000000
      1334       445  TIP3  H1          -11.6818563654       -4.0984569516        5.9240577386  CLST         445          1.0000000000
      1335       445  TIP3  H2          -11.3353672695       -4.9432019921        7.0823916726  CLST         445          1.0000000000
      1336       446  TIP3  OH2          -3.0214408178        4.6304505257       -5.3549012530  CLST         446          1.0000000000
      1337       446  TIP3  H1           -3.1985465689        4.8144237789       -6.2959507974  CLST         446          1.0000000000
      1338       446  TIP3  H2           -2.1295190490        4.9932251608       -5.2944811717  CLST         446          1.0000000000
      1339       447  TIP3  OH2          -4.9693985999      -12.4629490097       -3.8843824139  CLST         447          1.0000000000
      1340       447  TIP3  H1           -5.6653774586      -13.0122878346       -3.5233573007  CLST         447          1.0000000000
      1341       447  TIP3  H2           -4.5822889559      -12.1152646976       -3.0146106766  CLST         447          1.0000000000
      1342       448  TIP3  OH2           7.2668749983        9.5524949179        4.7651772259  CLST         448          1.0000000000
      1343       448  TIP3  H1            7.2966424431        9.4846742470        5.7620338477  CLST         448          1.0000000000
      1344       448  TIP3  H2            6.6984390947       10.3763228222        4.7800808665  CLST         448          1.0000000000
      1345       449  TIP3  OH2           4.2488784504        5.2561593600        8.5361468766  CLST         449          1.0000000000
      1346       449  TIP3  H1            4.8720396010        4.6986456196        9.1434222220  CLST         449          1.0000000000
      1347       449  TIP3  H2            4.1415558020        4.6668710360        7.7763782753  CLST         449          1.0000000000
      1348       450  TIP3  OH2          -3.9142438457        0.5124370318       -2.0793799719  CLST         450          1.0000000000
      1349       450  TIP3  H1           -3.4219049956        1.1673371232       -2.6553392042  CLST         450          1.0000000000
      1350       450  TIP3  H2           -3.1737876049        0.0678161703       -1.6639479038  CLST         450          1.0000000000
      1351       451  TIP3  OH2          13.5961510728       -1.7832099547       -5.7757350381  CLST         451          1.0000000000
      1352       451  TIP3  H1           15.1960100336       -1.8465169433       -5.9229080468  CLST         451          1.0000000000
      1353       451  TIP3  H2           14.3080983597       -0.6464130634       -5.7981059160  CLST         451          1.0000000000
      1354       452  TIP3  OH2           8.6312646355        4.9931739777        7.9583604446  CLST         452          1.0000000000
      1355       452  TIP3  H1            7.7755506239        5.4328560237        7.7169284937  CLST         452          1.0000000000
      1356       452  TIP3  H2            9.2710360420        5.6468292594        7.5335065023  CLST         452          1.0000000000
      1357       453  TIP3  OH2           6.8651759452        2.8993555387       -6.2051621516  CLST         453          1.0000000000
      1358       453  TIP3  H1            5.9609041301        2.6701450826       -5.8728779935  CLST         453          1.0000000000
      1359       453  TIP3  H2            6.4197889670        3.1192130741       -7.1087860995  CLST         453          1.0000000000
      1360       454  TIP3  OH2           1.0857765120        5.4315360390        2.1562548962  CLST         454          1.0000000000
      1361       454  TIP3  H1            0.1625285176        5.0917072363        2.0078003430  CLST         454          1.0000000000
      1362       454  TIP3  H2            0.8171037108        6.0689838686        2.8467041055  CLST         454          1.0000000000
      1363       455  TIP3  OH2          -0.9733734377        0.9481478234      -10.4793663269  CLST         455          1.0000000000
      1364       455  TIP3  H1           -1.1531772439        1.0795840764       -9.5048504487  CLST         455          1.0000000000
      1365       455  TIP3  H2           -0.9280545851        1.8755489858      -10.7399371063  CLST         455          1.0000000000
      1366       456  TIP3  OH2           5.4542085372       11.4673914830        5.2890097864  CLST         456          1.0000000000
      1367       456  TIP3  H1            4.7592897389       11.7795713191        4.5652296496  CLST         456          1.0000000000
      1368       456  TIP3  H2            4.7572200697       11.3575068544        5.9800946697  CLST         456          1.0000000000
      1369       457  TIP3  OH2          -4.8126492106       -7.8563144982        4.8382105688  CLST         457          1.0000000000
      1370       457  TIP3  H1           -5.6446613532       -7.9192480370        5.3395993815  CLST         457          1.0000000000
      1371       457  TIP3  H2           -5.1603796119       -7.3244069983        4.0982476770  CLST         457          1.0000000000
      1372       458  TIP3  OH2           8.0672336164       -6.4676600213      -11.4264109707  CLST         458          1.0000000000
      1373       458  TIP3  H1            9.0512379468       -6.2791061700      -11.6075134643  CLST         458          1.0000000000
      1374       458  TIP3  H2            8.0192436167       -5.6578302423      -10.8638021381  CLST         458          1.0000000000
      1375       459  TIP3  OH2           6.5706616535       -9.8496718943       -7.8065096098  CLST         459          1.0000000000
      1376       459  TIP3  H1            6.1703195652       -9.0220113904       -7.5403960239  CLST         459          1.0000000000
      1377       459  TIP3  H2            7.2500895021       -9.5061964148       -8.4516360550  CLST         459          1.0000000000
      1378       460  TIP3  OH2           8.9883389074       -2.0092341483       -2.8265009202  CLST         460          1.0000000000
      1379       460  TIP3  H1            9.3163953734       -2.8763781049       -2.5099419251  CLST         460          1.0000000000
      1380       460  TIP3  H2            9.7670284037       -1.6250368978       -3.3075578785  CLST         460          1.0000000000
      1381       461  TIP3  OH2          -1.4264738551      -12.6832996716       -5.4066523829  CLST         461          1.0000000000
      1382       461  TIP3  H1           -0.5947326106      -12.7922866105       -6.0072364397  CLST         461          1.0000000000
      1383       461  TIP3  H2           -0.9411167752      -13.0013027903       -4.5695066969  CLST         461          1.0000000000
      1384       462  TIP3  OH2          -0.2506608359        5.4542443696      -12.8425608930  CLST         462          1.0000000000
      1385       462  TIP3  H1            0.0505685523        6.3982027274      -12.5886961695  CLST         462          1.0000000000
      1386       462  TIP3  H2            0.5993499167        5.2000077542      -13.2401426279  CLST         462          1.0000000000
      1387       463  TIP3  OH2          -1.8546478140        1.9348482068       -7.8551382441  CLST         463          1.0000000000
      1388       463  TIP3  H1           -1.5962048058        1.1425010610       -7.3470879527  CLST         463          1.0000000000
      1389       463  TIP3  H2           -2.7804261662        1.9749301515       -7.5032932989  CLST         463          1.0000000000
      1390       464  TIP3  OH2          -6.5815531264        6.3513289968        4.1068717601  CLST         464          1.0000000000
      1391       464  TIP3  H1           -5.9101541798        5.6299852001        5.0319072036  CLST         464          1.0000000000
      1392       464  TIP3  H2           -6.6530235377        6.8445365913        5.2358837465  CLST         464          1.0000000000
      1393       465  TIP3  OH2          -4.4986526985      -12.6093759152        6.4559832539  CLST         465          1.0000000000
      1394       465  TIP3  H1           -3.6521317594      -13.1530983460        6.2397546285  CLST         465          1.0000000000
      1395       465  TIP3  H2           -4.1127005732      -11.7763725445        5.9950047843  CLST         465          1.0000000000
      1396       466  TIP3  OH2          -2.5394959457        9.1671564082       -4.0784574917  CLST         466          1.0000000000
      1397       466  TIP3  H1           -3.1365935347        9.3152328228       -4.8007828689  CLST         466          1.0000000000
      1398       466  TIP3  H2           -2.9443719290        9.8623773712       -3.3048282314  CLST         466          1.0000000000
      1399       467  TIP3  OH2           8.0638526601        5.9145393953        4.8200620130  CLST         467          1.0000000000
      1400       467  TIP3  H1            8.4904067317        6.4302283692        5.5169236149  CLST         467          1.0000000000
      1401       467  TIP3  H2            7.8187875540        6.6289784354        4.1461686969  CLST         467          1.0000000000
      1402       468  TIP3  OH2          -0.4877707358      -12.3910994932       10.2580064404  CLST         468          1.0000000000
      1403       468  TIP3  H1           -0.9069286255      -11.9605207391       11.0298016827  CLST         468          1.0000000000
      1404       468  TIP3  H2            0.4599840783      -12.4342567710       10.5299109461  CLST         468          1.0000000000
      1405       469  TIP3  OH2           5.5739975683        8.3397708021       14.1967302020  CLST         469          1.0000000000
      1406       469  TIP3  H1            6.5214611364        8.5060066717       13.8137060630  CLST         469          1.0000000000
      1407       469  TIP3  H2            5.1589068481        9.0549304919       13.7509441479  CLST         469          1.0000000000
      1408       470  TIP3  OH2         -11.2100718998       12.8097659065        0.6452795724  CLST         470          1.0000000000
      1409       470  TIP3  H1          -11.0418328017       12.8055185349       -0.2893545855  CLST         470          1.0000000000
      1410       470  TIP3  H2          -11.5825834683       11.9435851006        0.9241060957  CLST         470          1.0000000000
      1411       471  TIP3  OH2          -4.1986074018        9.7901532153       -9.0629771072  CLST         471          1.0000000000
      1412       471  TIP3  H1           -4.4970081764        8.8714471301       -9.2278795063  CLST         471          1.0000000000
      1413       471  TIP3  H2           -4.6445058603       10.1847884403       -9.8682290911  CLST         471          1.0000000000
      1414       472  TIP3  OH2         -11.9197349951        3.9238023733        2.7721568094  CLST         472          1.0000000000
      1415       472  TIP3  H1          -12.4153468783        3.0738456423        3.1086591808  CLST         472          1.0000000000
      1416       472  TIP3  H2          -11.3984575969        3.3895413968        2.0853890747  CLST         472          1.0000000000
      1417       473  TIP3  OH2           5.2672113394        0.8351452588       10.1750310957  CLST         473          1.0000000000
      1418       473  TIP3  H1            5.6532600234        1.6346725843       10.5292980777  CLST         473          1.0000000000
      1419       473  TIP3  H2            4.4166281848        1.0137923150        9.7489710492  CLST         473          1.0000000000
      1420       474  TIP3  OH2           1.3798963693        1.7668506756        1.6467636798  CLST         474          1.0000000000
      1421       474  TIP3  H1            0.4170134458        1.7006435612        1.5706420447  CLST         474          1.0000000000
      1422       474  TIP3  H2            1.6865462542        1.1944013682        0.9609775750  CLST         474          1.0000000000
      1423       475  TIP3  OH2           6.0852313066       -8.6889990702       12.0151675651  CLST         475          1.0000000000
      1424       475  TIP3  H1            7.0312386547       -8.7241018375       12.1263314203  CLST         475          1.0000000000
      1425       475  TIP3  H2            6.0170845658       -9.0866968911       11.1246399483  CLST         475          1.0000000000
      1426       476  TIP3  OH2         -11.2748162684       -9.0834456542       -0.1094561285  CLST         476          1.0000000000
      1427       476  TIP3  H1          -11.5417727493       -8.2183177654       -0.5365246930  CLST         476          1.0000000000
      1428       476  TIP3  H2          -10.6489676281       -9.3530118646       -0.7557737144  CLST         476          1.0000000000
      1429       477  TIP3  OH2         -12.2599777617        3.5984338223      -13.3776887111  CLST         477          1.0000000000
      1430       477  TIP3  H1          -12.7533942181        2.8811175858      -13.1056349623  CLST         477          1.0000000000
      1431       477  TIP3  H2          -11.6985988104        3.1123372199      -13.9565120338  CLST         477          1.0000000000
      1432       478  TIP3  OH2          -3.8163200608        6.6937772794      -10.5965106100  CLST         478          1.0000000000
      1433       478  TIP3  H1           -4.5026027844        6.6776884345      -11.3098568276  CLST         478          1.0000000000
      1434       478  TIP3  H2           -3.1524521338        7.2310925614      -11.0675072459  CLST         478          1.0000000000
      1435       479  TIP3  OH2           7.7313320947       -1.6324585262       -8.5519216854  CLST         479          1.0000000000
      1436       479  TIP3  H1            8.5559765418       -1.2950969990       -8.0006166271  CLST         479          1.0000000000
      1437       479  TIP3  H2            7.0941928649       -1.2356892368       -7.8602139520  CLST         479          1.0000000000
      1438       480  TIP3  OH2          -6.0876370418        7.6783579210       -0.0522063430  CLST         480          1.0000000000
      1439       480  TIP3  H1           -5.1327050064        7.9479195226       -0.3263558801  CLST         480          1.0000000000
      1440       480  TIP3  H2           -5.8832903667        6.7480517778        0.1991526418  CLST         480          1.0000000000
      1441       481  TIP3  OH2          -3.1792363391        2.5795052893       11.9797811019  CLST         481          1.0000000000
      1442       481  TIP3  H1           -2.2662001167        2.7669583957       11.7393516180  CLST         481          1.0000000000
      1443       481  TIP3  H2           -2.9872372573        1.6815306338       12.1106134890  CLST         481          1.0000000000
      1444       482  TIP3  OH2          -8.0300054169       11.4864768968       -7.6077471839  CLST         482          1.0000000000
      1445       482  TIP3  H1           -8.7160283212       11.3239495711       -8.2783033538  CLST         482          1.0000000000
      1446       482  TIP3  H2           -7.3119317624       11.9818040275       -8.1401350972  CLST         482          1.0000000000
      1447       483  TIP3  OH2           6.2082626845       -5.7701170411       12.5656136088  CLST         483          1.0000000000
      1448       483  TIP3  H1            5.8776071716       -6.7095908636       12.5064791065  CLST         483          1.0000000000
      1449       483  TIP3  H2            6.1299926785       -5.6259186220       11.5670960221  CLST         483          1.0000000000
      1450       484  TIP3  OH2           6.8742654464       -2.9789509194        3.0693380718  CLST         484          1.0000000000
      1451       484  TIP3  H1            5.8986886284       -3.1088421386        3.1473264379  CLST         484          1.0000000000
      1452       484  TIP3  H2            6.8897361246       -2.1549301691        3.6469177202  CLST         484          1.0000000000
      1453       485  TIP3  OH2         -11.6592341842        4.5551780723        9.8741292747  CLST         485          1.0000000000
      1454       485  TIP3  H1          -11.1116198778        3.0879732821        9.7783225683  CLST         485          1.0000000000
      1455       485  TIP3  H2          -12.7269035695        4.2934264501        9.1130150624  CLST         485          1.0000000000
      1456       486  TIP3  OH2           8.3183272947       -7.2689760206       13.7111007139  CLST         486          1.0000000000
      1457       486  TIP3  H1            8.6960920868       -6.8860645447       14.3963205992  CLST         486          1.0000000000
      1458       486  TIP3  H2            7.6716424461       -6.6092029625       13.3288942474  CLST         486          1.0000000000
      1459       487  TIP3  OH2          12.1426835435       -8.5015550123        6.1550613140  CLST         487          1.0000000000
      1460       487  TIP3  H1           11.1056833250       -8.4272831525        5.9109911059  CLST         487          1.0000000000
      1461       487  TIP3  H2           12.0242760172       -8.5227743352        7.0958097485  CLST         487          1.0000000000
      1462       488  TIP3  OH2          15.0312088374        8.7380078691        7.6672048715  CLST         488          1.0000000000
      1463       488  TIP3  H1           14.6506522287        7.3757906353        7.7123440364  CLST         488          1.0000000000
      1464       488  TIP3  H2           13.8010862823        7.4030326961        8.8594438994  CLST         488          1.0000000000
      1465       489  TIP3  OH2          -6.1055699228      -10.8755787866       11.7699400108  CLST         489          1.0000000000
      1466       489  TIP3  H1           -6.1923241707      -10.0388561684       11.4157635150  CLST         489          1.0000000000
      1467       489  TIP3  H2           -6.8815334886      -11.3390639043       11.3459674429  CLST         489          1.0000000000
      1468       490  TIP3  OH2           6.9804591506      -12.8272774757        2.2296911833  CLST         490          1.0000000000
      1469       490  TIP3  H1            6.8773586535      -12.0353895123        2.8672008138  CLST         490          1.0000000000
      1470       490  TIP3  H2            6.9382459381      -13.5901082676        2.7439435384  CLST         490          1.0000000000
      1471       491  TIP3  OH2           3.0281959820       -9.2248905435        4.9263899318  CLST         491          1.0000000000
      1472       491  TIP3  H1            2.2765565969       -9.1757687316        5.5432873865  CLST         491          1.0000000000
      1473       491  TIP3  H2            2.5540807396       -9.5808428261        4.1492664623  CLST         491          1.0000000000
      1474       492  TIP3  OH2          -0.6437251141       -6.5823937710       12.2237396401  CLST         492          1.0000000000
      1475       492  TIP3  H1           -0.4207740384       -7.5384900675       12.3050105556  CLST         492          1.0000000000
      1476       492  TIP3  H2           -1.6269967066       -6.6176648417       12.2140054770  CLST         492          1.0000000000
      1477       493  TIP3  OH2           3.5162528823       10.7214602546        7.1592677319  CLST         493          1.0000000000
      1478       493  TIP3  H1            4.2771428521       10.5144770230        7.7127308956  CLST         493          1.0000000000
      1479       493  TIP3  H2            2.7946542094       10.4295485239        7.7764800011  CLST         493          1.0000000000
      1480       494  TIP3  OH2          -9.1480077204        5.4971481486       -0.6436646828  CLST         494          1.0000000000
      1481       494  TIP3  H1           -9.4376497115        6.1288754219       -1.3351936455  CLST         494          1.0000000000
      1482       494  TIP3  H2           -9.5963254021        5.9061727219        0.1158631174  CLST         494          1.0000000000
      1483       495  TIP3  OH2           4.8714287855       -6.8194045518       -1.9160270662  CLST         495          1.0000000000
      1484       495  TIP3  H1            5.5710039798       -6.3526925704       -2.4539696653  CLST         495          1.0000000000
      1485       495  TIP3  H2            5.4503101639       -7.4915288671       -1.5400210314  CLST         495          1.0000000000
      1486       496  TIP3  OH2         -12.7525150074      -10.7394179414        7.5469724156  CLST         496          1.0000000000
      1487       496  TIP3  H1          -13.2060448946      -11.5442244484        7.8893106206  CLST         496          1.0000000000
      1488       496  TIP3  H2          -12.4861003451      -11.2751089059        6.7858972124  CLST         496          1.0000000000
      1489       497  TIP3  OH2          -9.4471780902      -13.3919570674       -7.3864535537  CLST         497          1.0000000000
      1490       497  TIP3  H1           -9.8629919142      -14.1753022182       -7.3051308696  CLST         497          1.0000000000
      1491       497  TIP3  H2           -9.6211278574      -12.8897996648       -8.1763249757  CLST         497          1.0000000000
      1492       498  TIP3  OH2          -5.6671448411        0.4786869105      -11.0111712490  CLST         498          1.0000000000
      1493       498  TIP3  H1           -5.9113500258        0.6804620146      -11.9345715026  CLST         498          1.0000000000
      1494       498  TIP3  H2           -5.4669955944        1.4084456926      -10.7166222660  CLST         498          1.0000000000
      1495       499  TIP3  OH2          11.4958499517        6.7808528777        3.5561881005  CLST         499          1.0000000000
      1496       499  TIP3  H1           11.9046341581        7.1839304577        2.7776857418  CLST         499          1.0000000000
      1497       499  TIP3  H2           11.2532061186        7.5395840906        4.1403251623  CLST         499          1.0000000000
      1498       500  TIP3  OH2           2.3174503363       -8.7314247778      -13.1446084788  CLST         500          1.0000000000
      1499       500  TIP3  H1            1.9009618726       -9.0779805830      -13.8647424295  CLST         500          1.0000000000
      1500       500  TIP3  H2            2.6038109192       -9.5688091892      -12.6854268448  CLST         500          1.0000000000
      1501       501  TIP3  OH2           1.3835234383      -11.0226961118       13.8542846178  CLST         501          1.0000000000
      1502       501  TIP3  H1            1.1376809149      -11.3576939332       14.5788954995  CLST         501          1.0000000000
      1503       501  TIP3  H2            2.3975977025      -10.7129784111       13.8036749898  CLST         501          1.0000000000
      1504       502  TIP3  OH2           6.1183320085        3.7413028851        9.8575715750  CLST         502          1.0000000000
      1505       502  TIP3  H1            6.5359996747        4.1317456908       10.6725588361  CLST         502          1.0000000000
      1506       502  TIP3  H2            6.8721324536        3.2114117530        9.5825662071  CLST         502          1.0000000000
      1507       503  TIP3  OH2          10.2492626327       -0.9308930378        0.3883901731  CLST         503          1.0000000000
      1508       503  TIP3  H1           10.9439774756       -0.6386800010        1.0380872773  CLST         503          1.0000000000
      1509       503  TIP3  H2           10.2333401966       -0.0907037040       -0.0869184494  CLST         503          1.0000000000
      1510       504  TIP3  OH2           8.2494800785      -13.7895228744       10.8345945471  CLST         504          1.0000000000
      1511       504  TIP3  H1            8.4277923620      -13.5246349633        9.8928822193  CLST         504          1.0000000000
      1512       504  TIP3  H2            8.6514639609      -14.6549880350       10.9772886673  CLST         504          1.0000000000
      1513       505  TIP3  OH2           3.8433861897      -10.9206105569       -5.6682331985  CLST         505          1.0000000000
      1514       505  TIP3  H1            3.7433573199      -10.2915078966       -6.4457682126  CLST         505          1.0000000000
      1515       505  TIP3  H2            3.2401981184      -10.4595758703       -5.0509219361  CLST         505          1.0000000000
      1516       506  TIP3  OH2          -9.2428307979       -3.3138304651       -8.2067792115  CLST         506          1.0000000000
      1517       506  TIP3  H1           -8.9789464779       -2.3214758439       -8.1945251384  CLST         506          1.0000000000
      1518       506  TIP3  H2          -10.1406534905       -3.1079984300       -8.6537648767  CLST         506          1.0000000000
      1519       507  TIP3  OH2          11.0788547118        9.8004064373      -12.9181790231  CLST         507          1.0000000000
      1520       507  TIP3  H1           11.4059384002        9.5724232290      -13.7649536806  CLST         507          1.0000000000
      1521       507  TIP3  H2           10.8847300073        8.8327031343      -12.6021210613  CLST         507          1.0000000000
      1522       508  TIP3  OH2           9.1698149127       12.2657935554        8.8632085728  CLST         508          1.0000000000
      1523       508  TIP3  H1            8.6935463572       12.5845905073        8.0948801567  CLST         508          1.0000000000
      1524       508  TIP3  H2           10.0514184320       12.4410281202        8.4908007612  CLST         508          1.0000000000
      1525       509  TIP3  OH2          -0.8179085022       -1.5253525089      -11.2300906306  CLST         509          1.0000000000
      1526       509  TIP3  H1           -1.7524911192       -1.6198424816      -11.4554041431  CLST         509          1.0000000000
      1527       509  TIP3  H2           -0.7940078291       -0.5370987859      -10.9444077304  CLST         509          1.0000000000
      1528       510  TIP3  OH2           8.1925032126        2.2667820009       11.7585157686  CLST         510          1.0000000000
      1529       510  TIP3  H1            7.9796722351        1.3021121879       11.7331030680  CLST         510          1.0000000000
      1530       510  TIP3  H2            9.0319711980        2.3113793341       11.2542906141  CLST         510          1.0000000000
      1531       511  TIP3  OH2          -8.7162596488       -5.9676627649       -0.6613143145  CLST         511          1.0000000000
      1532       511  TIP3  H1           -9.6659337169       -6.0496879513       -0.8167684615  CLST         511          1.0000000000
      1533       511  TIP3  H2           -8.5096782407       -5.3080301450       -1.3286906950  CLST         511          1.0000000000
      1534       512  TIP3  OH2          10.0295160374        7.0891063717        6.9300301411  CLST         512          1.0000000000
      1535       512  TIP3  H1           10.0603460138        7.8201483223        7.5949694681  CLST         512          1.0000000000
      1536       512  TIP3  H2           10.3458704940        7.6970650862        6.2052828181  CLST         512          1.0000000000
      1537       513  TIP3  OH2         -11.9785326344       10.5606971041        9.2205444984  CLST         513          1.0000000000
      1538       513  TIP3  H1          -11.4498528899       11.2911787183        9.6259336624  CLST         513          1.0000000000
      1539       513  TIP3  H2          -12.2676699712       10.0953626711       10.0031061471  CLST         513          1.0000000000
      1540       514  TIP3  OH2          -4.8686602198        5.1879614775        0.1122168552  CLST         514          1.0000000000
      1541       514  TIP3  H1           -4.0540002566        5.6518986579        0.4124345022  CLST         514          1.0000000000
      1542       514  TIP3  H2           -4.5954790844        5.1213378645       -0.8723782858  CLST         514          1.0000000000
      1543       515  TIP3  OH2          -0.7398831952        0.8436329738       -4.1439065492  CLST         515          1.0000000000
      1544       515  TIP3  H1           -1.5467934108        1.4048915060       -4.3454934981  CLST         515          1.0000000000
      1545       515  TIP3  H2           -0.0862702971        1.3911806345       -4.6363568605  CLST         515          1.0000000000
      1546       516  TIP3  OH2          -7.2787539075       -8.5624272016        6.4566354155  CLST         516          1.0000000000
      1547       516  TIP3  H1           -7.5393243256       -8.6104483245        5.5082958545  CLST         516          1.0000000000
      1548       516  TIP3  H2           -7.8677565518       -7.7660973765        6.6836124015  CLST         516          1.0000000000
      1549       517  TIP3  OH2           0.7289559372       11.1597970991       11.4176310369  CLST         517          1.0000000000
      1550       517  TIP3  H1            0.7325734659       10.8044676608       10.5083323121  CLST         517          1.0000000000
      1551       517  TIP3  H2           -0.2541425146       11.2979093075       11.5314422507  CLST         517          1.0000000000
      1552       518  TIP3  OH2         -11.6814421290       -3.4743157255      -11.3454580232  CLST         518          1.0000000000
      1553       518  TIP3  H1          -12.1347353303       -2.8923150063      -12.0677464270  CLST         518          1.0000000000
      1554       518  TIP3  H2          -10.8765527768       -3.8842269277      -11.8821278507  CLST         518          1.0000000000
      1555       519  TIP3  OH2           2.2350498557        3.4341509531        3.4294652750  CLST         519          1.0000000000
      1556       519  TIP3  H1            1.8499479849        4.2224656818        2.9422264035  CLST         519          1.0000000000
      1557       519  TIP3  H2            1.9274534196        2.7017656425        2.7671943849  CLST         519          1.0000000000
      1558       520  TIP3  OH2         -10.2063352745        6.1471930900        8.1455508491  CLST         520          1.0000000000
      1559       520  TIP3  H1          -10.6264434129        5.6740297150        7.2384608472  CLST         520          1.0000000000
      1560       520  TIP3  H2          -10.8969534971        5.7135996852        8.8630025672  CLST         520          1.0000000000
      1561       521  TIP3  OH2           8.3354246071       -9.0243879790       -9.5579190590  CLST         521          1.0000000000
      1562       521  TIP3  H1            8.4741507216       -9.6933154157      -10.2587406090  CLST         521          1.0000000000
      1563       521  TIP3  H2            8.2507579930       -8.1821986776      -10.0728313330  CLST         521          1.0000000000
      1564       522  TIP3  OH2          -5.4951513386       -7.0140038257        7.9841553833  CLST         522          1.0000000000
      1565       522  TIP3  H1           -6.0416417565       -7.7911413904        7.7743697879  CLST         522          1.0000000000
      1566       522  TIP3  H2           -4.5627379476       -7.3320093787        7.9312689765  CLST         522          1.0000000000
      1567       523  TIP3  OH2          -4.2850897097       12.1731023020      -13.3995711303  CLST         523          1.0000000000
      1568       523  TIP3  H1           -2.1129179385       12.1351428962      -13.5831249827  CLST         523          1.0000000000
      1569       523  TIP3  H2           -3.8944579562       12.5982779881      -14.1219252540  CLST         523          1.0000000000
      1570       524  TIP3  OH2           6.9664826880        3.7568984129       -1.8178190559  CLST         524          1.0000000000
      1571       524  TIP3  H1            7.2706355913        3.2220913493       -2.5820202196  CLST         524          1.0000000000
      1572       524  TIP3  H2            6.0343496190        3.8652234582       -2.0714129453  CLST         524          1.0000000000
      1573       525  TIP3  OH2           0.6278176536        6.8942804491       -2.4618801904  CLST         525          1.0000000000
      1574       525  TIP3  H1            0.8792793436        6.4447193489       -3.3038875956  CLST         525          1.0000000000
      1575       525  TIP3  H2            0.4584034847        6.0140400540       -1.9923346033  CLST         525          1.0000000000
      1576       526  TIP3  OH2           7.1430174358       -5.5940149743       -3.7092678794  CLST         526          1.0000000000
      1577       526  TIP3  H1            7.2017870899       -5.9018034384       -4.6474519725  CLST         526          1.0000000000
      1578       526  TIP3  H2            8.0733416857       -5.5326230714       -3.4693649870  CLST         526          1.0000000000
      1579       527  TIP3  OH2           0.3935942569        7.3292979192        4.0276623299  CLST         527          1.0000000000
      1580       527  TIP3  H1            1.1530462609        7.3275158461        4.6560784341  CLST         527          1.0000000000
      1581       527  TIP3  H2            0.3288016040        8.3211061541        3.8887951908  CLST         527          1.0000000000
      1582       528  TIP3  OH2          -2.7374981493        9.8999354422        8.5738327565  CLST         528          1.0000000000
      1583       528  TIP3  H1           -2.8645964920        9.8155301160        9.5118368231  CLST         528          1.0000000000
      1584       528  TIP3  H2           -3.6165170185       10.2651970858        8.3442129307  CLST         528          1.0000000000
      1585       529  TIP3  OH2          -5.8964309457       12.4976552354       -9.1811476174  CLST         529          1.0000000000
      1586       529  TIP3  H1           -5.1156241323       12.9091114731       -8.8714941604  CLST         529          1.0000000000
      1587       529  TIP3  H2           -5.7944306244       12.5430582891      -10.1503585253  CLST         529          1.0000000000
      1588       530  TIP3  OH2          -4.4342060591       -5.5113918690      -13.0963795515  CLST         530          1.0000000000
      1589       530  TIP3  H1           -4.2265584760       -6.4751894678      -13.3310103879  CLST         530          1.0000000000
      1590       530  TIP3  H2           -3.5412577903       -5.1393437362      -12.8718142820  CLST         530          1.0000000000
      1591       531  TIP3  OH2         -11.5359643959       -0.3828190380       10.3395713534  CLST         531          1.0000000000
      1592       531  TIP3  H1          -12.1749758771       -0.2506072755       10.9515354746  CLST         531          1.0000000000
      1593       531  TIP3  H2          -11.8677005746       -1.0061652022        9.5983657946  CLST         531          1.0000000000
      1594       532  TIP3  OH2         -12.0753550202       -3.1554215128       -8.6718815085  CLST         532          1.0000000000
      1595       532  TIP3  H1          -12.4996839481       -3.8517318277       -8.8609592456  CLST         532          1.0000000000
      1596       532  TIP3  H2          -12.1801531119       -3.7342902690      -10.2164097021  CLST         532          1.0000000000
      1597       533  TIP3  OH2          -2.9074080956       -7.2176750391        8.4507663640  CLST         533          1.0000000000
      1598       533  TIP3  H1           -2.1656744654       -7.8639011206        8.4615335416  CLST         533          1.0000000000
      1599       533  TIP3  H2           -2.4389809694       -6.3523251256        8.2696693130  CLST         533          1.0000000000
      1600       534  TIP3  OH2           0.4569166814      -13.2070972913       -7.7254521374  CLST         534          1.0000000000
      1601       534  TIP3  H1            0.9089243781      -13.1028321978       -8.5960197734  CLST         534          1.0000000000
      1602       534  TIP3  H2            1.3444771597      -13.2925550617       -7.2466429462  CLST         534          1.0000000000
      1603       535  TIP3  OH2           2.9790767392        3.1816960661       -7.3420407374  CLST         535          1.0000000000
      1604       535  TIP3  H1            3.4015553545        2.4890629289       -6.7364569974  CLST         535          1.0000000000
      1605       535  TIP3  H2            2.0103144165        3.0466340073       -7.3022029979  CLST         535          1.0000000000
      1606       536  TIP3  OH2           7.8855199878      -12.7760132044       -3.4696944359  CLST         536          1.0000000000
      1607       536  TIP3  H1            7.2595432445      -12.6074746446       -4.1253230656  CLST         536          1.0000000000
      1608       536  TIP3  H2            8.3581296651      -13.5108820855       -3.6711529479  CLST         536          1.0000000000
      1609       537  TIP3  OH2          11.7468900710       -2.6358919764       -7.5135053821  CLST         537          1.0000000000
      1610       537  TIP3  H1           11.3533154258       -1.7795241950       -7.3233502499  CLST         537          1.0000000000
      1611       537  TIP3  H2           12.6955084522       -2.5271399729       -7.2282611175  CLST         537          1.0000000000
      1612       538  TIP3  OH2          -4.9924361745      -10.9561097439        0.7517078482  CLST         538          1.0000000000
      1613       538  TIP3  H1           -4.2289053397      -11.2084690147        1.3695554587  CLST         538          1.0000000000
      1614       538  TIP3  H2           -4.9002585517       -9.9719181789        0.6963750633  CLST         538          1.0000000000
      1615       539  TIP3  OH2           2.4297463628       -5.1096058843        0.7620476727  CLST         539          1.0000000000
      1616       539  TIP3  H1            1.5541524826       -5.4654798195        1.0988982457  CLST         539          1.0000000000
      1617       539  TIP3  H2            2.2745873076       -5.3689696430       -0.1981686377  CLST         539          1.0000000000
      1618       540  TIP3  OH2           3.8974625635       -6.8074293935        4.6446514713  CLST         540          1.0000000000
      1619       540  TIP3  H1            3.6801730686       -7.7624949602        4.8692897394  CLST         540          1.0000000000
      1620       540  TIP3  H2            4.0798796300       -6.8631370599        3.6824160473  CLST         540          1.0000000000
      1621       541  TIP3  OH2          -5.4265627243       10.3718142259        2.3513183003  CLST         541          1.0000000000
      1622       541  TIP3  H1           -6.3249684095       10.3089479579        3.4814828599  CLST         541          1.0000000000
      1623       541  TIP3  H2           -4.3982981819       11.4743588023        2.7477699086  CLST         541          1.0000000000
      1624       542  TIP3  OH2         -10.9793572992       14.5354005795        5.5372704325  CLST         542          1.0000000000
      1625       542  TIP3  H1          -11.6917068677       14.9685911774        5.3356146267  CLST         542          1.0000000000
      1626       542  TIP3  H2          -10.7419777486       14.1145568471        4.6261094415  CLST         542          1.0000000000
      1627       543  TIP3  OH2         -10.6785717302       11.4261517888       -2.3165792249  CLST         543          1.0000000000
      1628       543  TIP3  H1          -11.5219718325       10.9316502954       -2.4531708193  CLST         543          1.0000000000
      1629       543  TIP3  H2          -10.4476978245       11.5649802192       -3.2773386167  CLST         543          1.0000000000
      1630       544  TIP3  OH2          -0.3601338496        5.5516435468       -5.5860302220  CLST         544          1.0000000000
      1631       544  TIP3  H1           -0.2719097618        5.1602885879       -6.5142393098  CLST         544          1.0000000000
      1632       544  TIP3  H2            0.5148418637        5.1971554788       -5.2591044184  CLST         544          1.0000000000
      1633       545  TIP3  OH2          -7.8166079594        2.5424404012      -12.4996005206  CLST         545          1.0000000000
      1634       545  TIP3  H1           -7.9672782427        2.2659327821      -13.4279717928  CLST         545          1.0000000000
      1635       545  TIP3  H2           -8.3921302798        3.3730805630      -12.5721176647  CLST         545          1.0000000000
      1636       546  TIP3  OH2           3.7423771450       11.0803111098       -1.9496858996  CLST         546          1.0000000000
      1637       546  TIP3  H1            3.4380581718       10.1425345733       -2.2674578854  CLST         546          1.0000000000
      1638       546  TIP3  H2            4.4329315892       10.7060764816       -1.2422590540  CLST         546          1.0000000000
      1639       547  TIP3  OH2          -3.4928080980       -2.1701896986      -11.2021199649  CLST         547          1.0000000000
      1640       547  TIP3  H1           -3.6082732780       -2.0781655016      -10.2033306851  CLST         547          1.0000000000
      1641       547  TIP3  H2           -3.9842887504       -1.3816445743      -11.4755873960  CLST         547          1.0000000000
      1642       548  TIP3  OH2          10.6701094815        2.4445298138        1.4008010195  CLST         548          1.0000000000
      1643       548  TIP3  H1            9.6845431587        2.4421671902        1.3962016352  CLST         548          1.0000000000
      1644       548  TIP3  H2           10.6741443858        3.1224865319        2.1391458863  CLST         548          1.0000000000
