* Geometry rescue: EQUI at step 16000
*
        1644  EXT
         1         1  TIP3  OH2           4.5728261526       -1.5797365153       -2.3269448854  CLST           1          1.0000000000
         2         1  TIP3  H1            4.5869020630       -1.6663167679       -1.3387208655  CLST           1          1.0000000000
         3         1  TIP3  H2            5.4830097468       -1.8781096210       -2.5198893780  CLST           1          1.0000000000
         4         2  TIP3  OH2          10.8201593692        7.5304079738      -11.6973055635  CLST           2          1.0000000000
         5         2  TIP3  H1           11.0043882755        7.1997253200      -10.8038077651  CLST           2          1.0000000000
         6         2  TIP3  H2            9.8252819127        7.3736013741      -11.6214799488  CLST           2          1.0000000000
         7         3  TIP3  OH2           8.8954722045        5.1850054978       -4.2203887294  CLST           3          1.0000000000
         8         3  TIP3  H1            9.1057954106        5.4362460592       -3.2639522639  CLST           3          1.0000000000
         9         3  TIP3  H2            8.9882997877        6.1214758258       -4.5263212008  CLST           3          1.0000000000
        10         4  TIP3  OH2          -2.9490573620        6.7640861365       10.2787505879  CLST           4          1.0000000000
        11         4  TIP3  H1           -3.5633779405        7.2079437349        9.6281187484  CLST           4          1.0000000000
        12         4  TIP3  H2           -3.1446210037        7.4659650428       10.9686147909  CLST           4          1.0000000000
        13         5  TIP3  OH2           9.2173228642        6.1924737863       10.6631926266  CLST           5          1.0000000000
        14         5  TIP3  H1            8.7959063631        5.3744109157       11.0432627877  CLST           5          1.0000000000
        15         5  TIP3  H2            8.8321983903        5.9419747767        9.7302545626  CLST           5          1.0000000000
        16         6  TIP3  OH2          10.5457612587       -6.0229402808      -11.6426803464  CLST           6          1.0000000000
        17         6  TIP3  H1           11.0627248714       -5.5327880394      -10.9241325222  CLST           6          1.0000000000
        18         6  TIP3  H2           10.5754621921       -5.2138073587      -12.2647947581  CLST           6          1.0000000000
        19         7  TIP3  OH2         -12.3062202569        8.2781459356        5.8790149429  CLST           7          1.0000000000
        20         7  TIP3  H1          -12.5988286292        9.2263122813        6.1047281910  CLST           7          1.0000000000
        21         7  TIP3  H2          -11.4351038716        8.3163498524        6.3548994069  CLST           7          1.0000000000
        22         8  TIP3  OH2          -4.5053102718       -8.3063674260        0.5701891492  CLST           8          1.0000000000
        23         8  TIP3  H1           -5.0357357647       -7.5322882199        0.7875867340  CLST           8          1.0000000000
        24         8  TIP3  H2           -3.7282145282       -7.8544310015        0.1707422009  CLST           8          1.0000000000
        25         9  TIP3  OH2           2.7084469920      -14.3123208885       -4.1071725518  CLST           9          1.0000000000
        26         9  TIP3  H1            1.7834665258      -14.3209257028       -3.7399744557  CLST           9          1.0000000000
        27         9  TIP3  H2            3.0632685607      -13.6971142872       -3.4649665265  CLST           9          1.0000000000
        28        10  TIP3  OH2         -14.2603455591       -1.2282168941       -0.5392857446  CLST          10          1.0000000000
        29        10  TIP3  H1          -13.8237258393       -1.3965116027       -1.3997358690  CLST          10          1.0000000000
        30        10  TIP3  H2          -14.6615258324       -1.9377802801       -0.3230347266  CLST          10          1.0000000000
        31        11  TIP3  OH2           6.9606940876        6.8527284646       -1.7517808483  CLST          11          1.0000000000
        32        11  TIP3  H1            7.0342305229        5.8928455423       -1.9063708957  CLST          11          1.0000000000
        33        11  TIP3  H2            6.9073982301        7.1432939294       -2.6967123506  CLST          11          1.0000000000
        34        12  TIP3  OH2          -8.3074313499        2.6665700858        1.8544283416  CLST          12          1.0000000000
        35        12  TIP3  H1           -7.6989649319        2.9837275174        1.1446440040  CLST          12          1.0000000000
        36        12  TIP3  H2           -9.1214378073        2.4704389037        1.3302658909  CLST          12          1.0000000000
        37        13  TIP3  OH2           7.7136137565        2.4602247087        2.0608898268  CLST          13          1.0000000000
        38        13  TIP3  H1            7.4444634461        3.2031094673        1.5042757540  CLST          13          1.0000000000
        39        13  TIP3  H2            7.7037702584        2.8393457692        2.9461375038  CLST          13          1.0000000000
        40        14  TIP3  OH2          -0.2665915910        2.1536218365        7.9444191880  CLST          14          1.0000000000
        41        14  TIP3  H1            0.0481042017        3.0248082393        7.5565187328  CLST          14          1.0000000000
        42        14  TIP3  H2            0.4752814340        1.5709034816        7.6399309296  CLST          14          1.0000000000
        43        15  TIP3  OH2          -8.9588042306       -3.8901057085      -12.7213539686  CLST          15          1.0000000000
        44        15  TIP3  H1           -8.4065102350       -3.8633841360      -13.5132749210  CLST          15          1.0000000000
        45        15  TIP3  H2           -8.2967573186       -4.4454266054      -12.1687784586  CLST          15          1.0000000000
        46        16  TIP3  OH2          -3.7537500138      -12.8131653132       -6.1979277324  CLST          16          1.0000000000
        47        16  TIP3  H1           -4.2831748639      -12.8185522431       -5.3543669846  CLST          16          1.0000000000
        48        16  TIP3  H2           -2.8468960208      -12.9309689983       -5.8228567473  CLST          16          1.0000000000
        49        17  TIP3  OH2           4.8740783312      -13.4550178724       -8.6059816365  CLST          17          1.0000000000
        50        17  TIP3  H1            5.4569556343      -13.5034321356       -7.8015143112  CLST          17          1.0000000000
        51        17  TIP3  H2            4.0325938124      -13.3793459617       -8.1431302675  CLST          17          1.0000000000
        52        18  TIP3  OH2         -11.7600794270       -6.8013867779       -1.4550924427  CLST          18          1.0000000000
        53        18  TIP3  H1          -12.1374062646       -5.9579130722       -1.8843637998  CLST          18          1.0000000000
        54        18  TIP3  H2          -11.7062937159       -7.2076083727       -2.3888145928  CLST          18          1.0000000000
        55        19  TIP3  OH2          11.0356269381       -0.1180692830        9.5338129070  CLST          19          1.0000000000
        56        19  TIP3  H1           10.6521071656       -0.9858447721        9.7123672877  CLST          19          1.0000000000
        57        19  TIP3  H2           11.0597391032       -0.1441196186        8.5722863216  CLST          19          1.0000000000
        58        20  TIP3  OH2         -13.3045754298        1.5350596636        2.7295369178  CLST          20          1.0000000000
        59        20  TIP3  H1          -13.2879020804        1.1959146407        1.8014008140  CLST          20          1.0000000000
        60        20  TIP3  H2          -14.1443455897        1.7073312428        2.9535166428  CLST          20          1.0000000000
        61        21  TIP3  OH2         -10.0874063156       12.4350097974       -5.3132444831  CLST          21          1.0000000000
        62        21  TIP3  H1          -10.4799941884       13.1489724627       -5.7352349409  CLST          21          1.0000000000
        63        21  TIP3  H2           -9.3298016068       12.3184419254       -5.8585936036  CLST          21          1.0000000000
        64        22  TIP3  OH2           2.8806922849       12.2813371434       -6.5690458961  CLST          22          1.0000000000
        65        22  TIP3  H1            3.2770829953       11.6567346832       -6.0243447677  CLST          22          1.0000000000
        66        22  TIP3  H2            3.1590198908       13.0187005718       -6.0613759249  CLST          22          1.0000000000
        67        23  TIP3  OH2           5.5520511657       -1.7684682015       11.5051485873  CLST          23          1.0000000000
        68        23  TIP3  H1            5.3123309210       -2.2328597782       10.6991716484  CLST          23          1.0000000000
        69        23  TIP3  H2            5.1685466568       -0.8978379990       11.2809359250  CLST          23          1.0000000000
        70        24  TIP3  OH2          -0.2846153032        1.2172694006        4.4931608689  CLST          24          1.0000000000
        71        24  TIP3  H1            0.3869124942        1.0446918039        5.2225338947  CLST          24          1.0000000000
        72        24  TIP3  H2           -0.9498817175        0.5665692263        4.8784029274  CLST          24          1.0000000000
        73        25  TIP3  OH2           3.2743786629        2.0245349696       -2.6593132396  CLST          25          1.0000000000
        74        25  TIP3  H1            3.7345310343        1.7410350932       -1.8147979216  CLST          25          1.0000000000
        75        25  TIP3  H2            3.5369737794        2.9640639979       -2.6643894650  CLST          25          1.0000000000
        76        26  TIP3  OH2          11.3500754950        5.7021244511       -6.5672143769  CLST          26          1.0000000000
        77        26  TIP3  H1           10.4683003954        5.4785721776       -6.9985295280  CLST          26          1.0000000000
        78        26  TIP3  H2           11.0946232682        6.5021868956       -6.0223251904  CLST          26          1.0000000000
        79        27  TIP3  OH2         -10.3848806209        7.3803792713       -5.4238136676  CLST          27          1.0000000000
        80        27  TIP3  H1          -10.3101675775        7.7095257199       -4.4961915009  CLST          27          1.0000000000
        81        27  TIP3  H2          -11.0509290847        8.0096254345       -5.6666423221  CLST          27          1.0000000000
        82        28  TIP3  OH2          -4.1998915413      -10.3041532340       -6.8500799340  CLST          28          1.0000000000
        83        28  TIP3  H1           -4.1284987020      -11.2599760651       -6.6054379589  CLST          28          1.0000000000
        84        28  TIP3  H2           -5.1625141791      -10.2096295864       -6.7768568937  CLST          28          1.0000000000
        85        29  TIP3  OH2         -10.7794747382        7.5655751970       -2.5171129872  CLST          29          1.0000000000
        86        29  TIP3  H1          -10.1524582303        8.1404394587       -1.9415700906  CLST          29          1.0000000000
        87        29  TIP3  H2          -11.5669424057        8.1542608999       -2.3220353244  CLST          29          1.0000000000
        88        30  TIP3  OH2           8.7134210119      -10.3633332363       -2.0541715889  CLST          30          1.0000000000
        89        30  TIP3  H1            9.2756169143      -11.1142546050       -1.7122401708  CLST          30          1.0000000000
        90        30  TIP3  H2            8.2081995924      -11.0884658831       -2.6336193702  CLST          30          1.0000000000
        91        31  TIP3  OH2          -9.7966127775       -1.1658640640      -13.1388460769  CLST          31          1.0000000000
        92        31  TIP3  H1           -9.6708225071       -2.1038010776      -12.8803241040  CLST          31          1.0000000000
        93        31  TIP3  H2           -9.4611777571       -0.7337372609      -12.3207110782  CLST          31          1.0000000000
        94        32  TIP3  OH2          -8.6868725913       -6.6066745745        7.0345201375  CLST          32          1.0000000000
        95        32  TIP3  H1           -9.4563418788       -6.2197233987        7.5120440285  CLST          32          1.0000000000
        96        32  TIP3  H2           -8.7036447033       -5.8883340043        6.2984850627  CLST          32          1.0000000000
        97        33  TIP3  OH2          11.7719206434       -9.0181028674        8.9149891735  CLST          33          1.0000000000
        98        33  TIP3  H1           11.8661033384       -9.9733990495        9.1792555976  CLST          33          1.0000000000
        99        33  TIP3  H2           11.5624254423       -8.5420374374        9.6476888678  CLST          33          1.0000000000
       100        34  TIP3  OH2           4.2673956854       -3.8678663487        3.0231387968  CLST          34          1.0000000000
       101        34  TIP3  H1            3.7320403326       -3.9990190703        2.2057532025  CLST          34          1.0000000000
       102        34  TIP3  H2            4.2746508406       -4.7625605353        3.4013326620  CLST          34          1.0000000000
       103        35  TIP3  OH2           6.1134673457       -1.0084679718        4.4331390173  CLST          35          1.0000000000
       104        35  TIP3  H1            5.2587661418       -1.2553471536        4.8611058033  CLST          35          1.0000000000
       105        35  TIP3  H2            6.6703283941       -0.6179762435        5.1082544004  CLST          35          1.0000000000
       106        36  TIP3  OH2          -1.4392159201        1.3914840884        2.1901155495  CLST          36          1.0000000000
       107        36  TIP3  H1           -2.0916671566        0.7647644207        2.5877218501  CLST          36          1.0000000000
       108        36  TIP3  H2           -0.8792107018        1.4152377296        3.0439270989  CLST          36          1.0000000000
       109        37  TIP3  OH2          -4.4441885262       -8.1962110394      -12.9089312121  CLST          37          1.0000000000
       110        37  TIP3  H1           -5.1601223138       -8.4149080752      -12.2895823425  CLST          37          1.0000000000
       111        37  TIP3  H2           -4.1435668818       -9.0397907575      -13.2905490036  CLST          37          1.0000000000
       112        38  TIP3  OH2          -3.2687960985        2.3879998257       -4.4767713298  CLST          38          1.0000000000
       113        38  TIP3  H1           -3.1193982304        3.2981345085       -4.8896587948  CLST          38          1.0000000000
       114        38  TIP3  H2           -3.5276193322        1.8051838035       -5.2320556663  CLST          38          1.0000000000
       115        39  TIP3  OH2           1.7101488832      -10.9993378135        2.0296558988  CLST          39          1.0000000000
       116        39  TIP3  H1            1.5877564749      -11.3911434924        2.9398607204  CLST          39          1.0000000000
       117        39  TIP3  H2            0.8018376913      -10.5793676106        1.8954760358  CLST          39          1.0000000000
       118        40  TIP3  OH2          -7.0089472630       12.5511778616        8.2044435939  CLST          40          1.0000000000
       119        40  TIP3  H1           -7.8781330779       12.9254541309        7.9344408911  CLST          40          1.0000000000
       120        40  TIP3  H2           -6.4345748169       12.8031704028        7.4287044819  CLST          40          1.0000000000
       121        41  TIP3  OH2           9.7387424003       -2.2608945033      -11.0631614114  CLST          41          1.0000000000
       122        41  TIP3  H1            8.9985839242       -2.8920342756      -10.8285297687  CLST          41          1.0000000000
       123        41  TIP3  H2            9.7119445446       -1.5505525659      -10.4432183398  CLST          41          1.0000000000
       124        42  TIP3  OH2           9.7219012799       10.2836315499      -10.7377023915  CLST          42          1.0000000000
       125        42  TIP3  H1           10.6077390353       10.1645805168      -10.2745590906  CLST          42          1.0000000000
       126        42  TIP3  H2           10.1408057510       10.2734347984      -11.6129162255  CLST          42          1.0000000000
       127        43  TIP3  OH2          11.9802782891       12.7167891185        7.7417183803  CLST          43          1.0000000000
       128        43  TIP3  H1           12.7303471023       13.0966917879        7.3777770506  CLST          43          1.0000000000
       129        43  TIP3  H2           12.3204867603       11.9431779392        8.2298936104  CLST          43          1.0000000000
       130        44  TIP3  OH2           7.7610366872        0.9530983876        6.0232857328  CLST          44          1.0000000000
       131        44  TIP3  H1            7.8371321322        1.4568826019        6.9044239883  CLST          44          1.0000000000
       132        44  TIP3  H2            7.5458849849        1.8046997241        5.5143703632  CLST          44          1.0000000000
       133        45  TIP3  OH2           7.8471692314        9.3863637843        7.4165557452  CLST          45          1.0000000000
       134        45  TIP3  H1            7.3931068838        8.5103071432        7.4979203132  CLST          45          1.0000000000
       135        45  TIP3  H2            8.6761801396        9.2930401877        7.9386240872  CLST          45          1.0000000000
       136        46  TIP3  OH2          -5.6586012827       -3.2278215585      -13.0554077892  CLST          46          1.0000000000
       137        46  TIP3  H1           -5.4665370109       -4.2308856474      -13.1430054904  CLST          46          1.0000000000
       138        46  TIP3  H2           -4.7765556021       -3.0784041794      -12.6768357902  CLST          46          1.0000000000
       139        47  TIP3  OH2           1.3363392893       -6.6166936201      -11.0647278542  CLST          47          1.0000000000
       140        47  TIP3  H1            1.6210200979       -5.6925297148      -10.8254226872  CLST          47          1.0000000000
       141        47  TIP3  H2            1.1621189848       -6.4837387214      -12.0216835208  CLST          47          1.0000000000
       142        48  TIP3  OH2           5.0921633281        5.5924640070        1.0866766988  CLST          48          1.0000000000
       143        48  TIP3  H1            5.9484306131        5.1997475520        0.8058663855  CLST          48          1.0000000000
       144        48  TIP3  H2            5.3675331494        6.5658054485        1.0595116908  CLST          48          1.0000000000
       145        49  TIP3  OH2          -3.3057280908      -10.5799637444      -13.8048405151  CLST          49          1.0000000000
       146        49  TIP3  H1           -2.4501173932      -10.7841030128      -13.4936567770  CLST          49          1.0000000000
       147        49  TIP3  H2           -3.7787439098      -11.1596870388      -13.1598338816  CLST          49          1.0000000000
       148        50  TIP3  OH2           2.9090063271        3.7622967415        5.8966266892  CLST          50          1.0000000000
       149        50  TIP3  H1            2.1107260217        4.1946248689        6.2516253258  CLST          50          1.0000000000
       150        50  TIP3  H2            2.5276000271        3.6111809422        4.9570961066  CLST          50          1.0000000000
       151        51  TIP3  OH2          -6.5180393068      -10.0426657686       -4.6977498980  CLST          51          1.0000000000
       152        51  TIP3  H1           -6.4926420025       -9.9008174137       -3.7076747855  CLST          51          1.0000000000
       153        51  TIP3  H2           -6.3506761559      -10.9891957298       -4.7065127728  CLST          51          1.0000000000
       154        52  TIP3  OH2           9.1134878679       -5.7309800009       -0.1495741354  CLST          52          1.0000000000
       155        52  TIP3  H1            9.2069858536       -5.3611081730       -1.0710859743  CLST          52          1.0000000000
       156        52  TIP3  H2            8.8780607818       -4.8737657072        0.2791500012  CLST          52          1.0000000000
       157        53  TIP3  OH2          -9.7039382198       10.0118483369      -12.3878695742  CLST          53          1.0000000000
       158        53  TIP3  H1          -10.1118553380       10.0093906441      -13.4128452768  CLST          53          1.0000000000
       159        53  TIP3  H2           -8.7777188391        9.4805946891      -12.4817326864  CLST          53          1.0000000000
       160        54  TIP3  OH2           0.4078148986       -3.0931865469       -9.5547123364  CLST          54          1.0000000000
       161        54  TIP3  H1            1.3523236946       -3.1976747649       -9.8272598006  CLST          54          1.0000000000
       162        54  TIP3  H2            0.0711486734       -2.4555722011      -10.2607774963  CLST          54          1.0000000000
       163        55  TIP3  OH2           2.9574052741       -3.9779013637      -14.5623324767  CLST          55          1.0000000000
       164        55  TIP3  H1            3.2711877716       -4.8345580401      -14.3674356384  CLST          55          1.0000000000
       165        55  TIP3  H2            2.9615696944       -3.7698092876      -15.4359804274  CLST          55          1.0000000000
       166        56  TIP3  OH2          -9.9131838253       11.1357372228        5.7861284829  CLST          56          1.0000000000
       167        56  TIP3  H1          -10.0844308676       10.3599150823        6.3874336076  CLST          56          1.0000000000
       168        56  TIP3  H2          -10.3390819571       10.7658178952        4.9832596090  CLST          56          1.0000000000
       169        57  TIP3  OH2           1.6575228709      -13.3109624782        0.3476891463  CLST          57          1.0000000000
       170        57  TIP3  H1            1.7315380470      -12.3946858967        0.7898824790  CLST          57          1.0000000000
       171        57  TIP3  H2            2.6291261372      -13.2659944489        0.1070932769  CLST          57          1.0000000000
       172        58  TIP3  OH2         -13.0131108801       10.6796520069        7.0406783390  CLST          58          1.0000000000
       173        58  TIP3  H1          -12.7349492980       11.4930415335        6.6280377415  CLST          58          1.0000000000
       174        58  TIP3  H2          -12.7454768449       10.7383607435        8.0033776205  CLST          58          1.0000000000
       175        59  TIP3  OH2         -11.5386311930       -2.6727800685        5.2724766537  CLST          59          1.0000000000
       176        59  TIP3  H1          -12.0797115361       -2.5771087237        6.1166253182  CLST          59          1.0000000000
       177        59  TIP3  H2          -11.6805639752       -1.6591802919        5.0681040290  CLST          59          1.0000000000
       178        60  TIP3  OH2           1.1652257482        9.4895604309        8.5641925361  CLST          60          1.0000000000
       179        60  TIP3  H1            0.3744052478        8.9123814411        8.2507826875  CLST          60          1.0000000000
       180        60  TIP3  H2            1.6969906056        8.7167362670        8.8430278205  CLST          60          1.0000000000
       181        61  TIP3  OH2           2.8055582846       -0.6608516369       -5.4075570652  CLST          61          1.0000000000
       182        61  TIP3  H1            3.3127662646       -1.5177516550       -5.4585573400  CLST          61          1.0000000000
       183        61  TIP3  H2            2.1414969656       -0.7507076756       -6.1456810619  CLST          61          1.0000000000
       184        62  TIP3  OH2           7.9073466113        8.4835591682       12.4164053867  CLST          62          1.0000000000
       185        62  TIP3  H1            8.1598503149        7.6444030489       11.9888273699  CLST          62          1.0000000000
       186        62  TIP3  H2            8.0291147590        9.1451132889       11.7328447540  CLST          62          1.0000000000
       187        63  TIP3  OH2           4.6136936961       -7.0679949236      -10.2725017183  CLST          63          1.0000000000
       188        63  TIP3  H1            3.7917738970       -7.0416591976      -10.7598896412  CLST          63          1.0000000000
       189        63  TIP3  H2            5.2382670687       -7.4454003129      -11.0012353302  CLST          63          1.0000000000
       190        64  TIP3  OH2          -2.4083619831       11.6903186590        5.3367112049  CLST          64          1.0000000000
       191        64  TIP3  H1           -2.5766063024       10.7068357347        5.3965414444  CLST          64          1.0000000000
       192        64  TIP3  H2           -1.6543666114       11.6561154264        6.0217967102  CLST          64          1.0000000000
       193        65  TIP3  OH2          10.9401762511       -4.4838350536       -5.3297121258  CLST          65          1.0000000000
       194        65  TIP3  H1           11.1770523246       -4.1594611552       -6.2407481719  CLST          65          1.0000000000
       195        65  TIP3  H2           11.1540606954       -3.6034644593       -4.9456336572  CLST          65          1.0000000000
       196        66  TIP3  OH2           6.2760853286       -9.9886384733        9.3057326830  CLST          66          1.0000000000
       197        66  TIP3  H1            5.4875458976       -9.6671166626        8.7595008519  CLST          66          1.0000000000
       198        66  TIP3  H2            6.8547883827       -9.2053225839        9.1716955899  CLST          66          1.0000000000
       199        67  TIP3  OH2         -11.4541132211       -7.6193784566       -3.9513949764  CLST          67          1.0000000000
       200        67  TIP3  H1          -10.6801517209       -7.1444471515       -4.2678543826  CLST          67          1.0000000000
       201        67  TIP3  H2          -11.8791952187       -7.9587084394       -4.6260206427  CLST          67          1.0000000000
       202        68  TIP3  OH2          -0.7332123579       -5.3737148127        5.3820490791  CLST          68          1.0000000000
       203        68  TIP3  H1            0.2655015830       -5.3144056164        5.5063934231  CLST          68          1.0000000000
       204        68  TIP3  H2           -0.9613964904       -5.2651981235        6.3334762970  CLST          68          1.0000000000
       205        69  TIP3  OH2           7.8723513246       11.5068074735       -8.7164559233  CLST          69          1.0000000000
       206        69  TIP3  H1            8.3935728516       11.2773966540       -9.5259527203  CLST          69          1.0000000000
       207        69  TIP3  H2            8.6722360019       11.7573264173       -8.2102573522  CLST          69          1.0000000000
       208        70  TIP3  OH2          -1.0652093616      -12.1465611393       -0.4414989562  CLST          70          1.0000000000
       209        70  TIP3  H1           -0.0951637412      -12.3184769497       -0.6349787024  CLST          70          1.0000000000
       210        70  TIP3  H2           -1.0128355767      -12.6150453332        0.4392341033  CLST          70          1.0000000000
       211        71  TIP3  OH2         -10.1501911904       -7.4502216169        1.9294342196  CLST          71          1.0000000000
       212        71  TIP3  H1          -10.5289062499       -6.6648220209        2.3706621137  CLST          71          1.0000000000
       213        71  TIP3  H2          -10.8179795073       -7.7994048776        1.2988446545  CLST          71          1.0000000000
       214        72  TIP3  OH2           0.3307691174        1.9798495459       -1.5313711356  CLST          72          1.0000000000
       215        72  TIP3  H1           -0.1961313117        1.1558400670       -1.6179755037  CLST          72          1.0000000000
       216        72  TIP3  H2            1.1984837980        1.7496567331       -1.9215575519  CLST          72          1.0000000000
       217        73  TIP3  OH2          -9.7150446543       13.0649310674        7.5280030425  CLST          73          1.0000000000
       218        73  TIP3  H1           -9.8275996933       12.3247473153        6.8373257983  CLST          73          1.0000000000
       219        73  TIP3  H2          -10.2143403411       13.7000105977        6.8927136632  CLST          73          1.0000000000
       220        74  TIP3  OH2           6.6761893974       -2.8217044716       -3.6667214269  CLST          74          1.0000000000
       221        74  TIP3  H1            6.6031745284       -3.7170950453       -3.3251039857  CLST          74          1.0000000000
       222        74  TIP3  H2            7.6602109530       -2.6510943460       -3.4933317030  CLST          74          1.0000000000
       223        75  TIP3  OH2           2.8530222622      -13.3079917909       -6.6768346008  CLST          75          1.0000000000
       224        75  TIP3  H1            2.9967998112      -12.4315061441       -6.2286012130  CLST          75          1.0000000000
       225        75  TIP3  H2            2.8395244556      -13.8807318591       -5.8602581628  CLST          75          1.0000000000
       226        76  TIP3  OH2           3.9356250593       -9.7959691135        1.2039914956  CLST          76          1.0000000000
       227        76  TIP3  H1            4.0724529488       -8.8829978821        1.4787011854  CLST          76          1.0000000000
       228        76  TIP3  H2            3.1111767789      -10.0917108477        1.6049809504  CLST          76          1.0000000000
       229        77  TIP3  OH2          10.4279992738       -8.2177220956       -2.5349304890  CLST          77          1.0000000000
       230        77  TIP3  H1            9.7263135229       -8.8820713649       -2.3038007274  CLST          77          1.0000000000
       231        77  TIP3  H2           10.1849160285       -8.2872644160       -3.4889361713  CLST          77          1.0000000000
       232        78  TIP3  OH2          10.7096450351       11.6527014000       -7.8323126156  CLST          78          1.0000000000
       233        78  TIP3  H1           11.3513014548       10.9782876815       -8.1618508057  CLST          78          1.0000000000
       234        78  TIP3  H2           11.0841425541       12.4171499848       -7.6227586300  CLST          78          1.0000000000
       235        79  TIP3  OH2          12.7968813540        0.7351113125        1.0979460374  CLST          79          1.0000000000
       236        79  TIP3  H1           13.6582077003        0.9263123630        1.2719813825  CLST          79          1.0000000000
       237        79  TIP3  H2           12.1082925272        1.3674242917        1.4716435002  CLST          79          1.0000000000
       238        80  TIP3  OH2          -7.4672464175        0.0332071463        6.6575784676  CLST          80          1.0000000000
       239        80  TIP3  H1           -7.5554037249        0.5094646668        5.7735773236  CLST          80          1.0000000000
       240        80  TIP3  H2           -6.5940806690       -0.4281218532        6.5688868047  CLST          80          1.0000000000
       241        81  TIP3  OH2          -7.5083405328      -10.8349898126        2.2303220591  CLST          81          1.0000000000
       242        81  TIP3  H1           -6.7165262123      -10.9135558997        1.6577570499  CLST          81          1.0000000000
       243        81  TIP3  H2           -7.1847217437      -11.0972210444        3.0922359736  CLST          81          1.0000000000
       244        82  TIP3  OH2          -1.6255083208       -9.8687721307       -6.5200469120  CLST          82          1.0000000000
       245        82  TIP3  H1           -2.6001034572       -9.8241231014       -6.4940182131  CLST          82          1.0000000000
       246        82  TIP3  H2           -1.6354776006      -10.8086380030       -6.2003333393  CLST          82          1.0000000000
       247        83  TIP3  OH2          12.2668163371       -8.5884548310        1.5554938076  CLST          83          1.0000000000
       248        83  TIP3  H1           12.6149344076       -8.0985424172        2.3587226776  CLST          83          1.0000000000
       249        83  TIP3  H2           11.3302108478       -8.2528315243        1.6293270050  CLST          83          1.0000000000
       250        84  TIP3  OH2          -3.5948093849       10.9968003491       -2.0803689105  CLST          84          1.0000000000
       251        84  TIP3  H1           -4.4564171203       10.8794123321       -2.5634506087  CLST          84          1.0000000000
       252        84  TIP3  H2           -3.6740631997       11.9172785825       -2.1441928495  CLST          84          1.0000000000
       253        85  TIP3  OH2           5.7515710919       -2.1995031482        0.0254174585  CLST          85          1.0000000000
       254        85  TIP3  H1            5.8368521839       -1.5473866393        0.7707033700  CLST          85          1.0000000000
       255        85  TIP3  H2            6.4871792672       -2.8008162764        0.2585250947  CLST          85          1.0000000000
       256        86  TIP3  OH2           6.6834413256       -8.4130529634        5.7897398569  CLST          86          1.0000000000
       257        86  TIP3  H1            6.0319037950       -8.6770196805        6.5262501276  CLST          86          1.0000000000
       258        86  TIP3  H2            6.4536773268       -7.4174373025        5.8571548707  CLST          86          1.0000000000
       259        87  TIP3  OH2          -1.4419760506       -3.5806323299       10.6459523292  CLST          87          1.0000000000
       260        87  TIP3  H1           -0.8542712687       -3.9263576514       11.4289392755  CLST          87          1.0000000000
       261        87  TIP3  H2           -2.3051111852       -4.0129147270       10.9196011056  CLST          87          1.0000000000
       262        88  TIP3  OH2          -0.7873896771        4.6199724266       -8.0057511437  CLST          88          1.0000000000
       263        88  TIP3  H1           -1.2310168647        3.7345224647       -7.8433388459  CLST          88          1.0000000000
       264        88  TIP3  H2           -1.6716495507        5.0955712142       -8.1977500052  CLST          88          1.0000000000
       265        89  TIP3  OH2           3.3966662220        0.8685846603      -11.6732308552  CLST          89          1.0000000000
       266        89  TIP3  H1            3.4818438808        1.6437499385      -12.1542494266  CLST          89          1.0000000000
       267        89  TIP3  H2            3.5541812270        0.0555035422      -12.1445178139  CLST          89          1.0000000000
       268        90  TIP3  OH2           5.7050191553       11.2331407604       -5.4557063861  CLST          90          1.0000000000
       269        90  TIP3  H1            5.2889991440       11.8383676295       -4.7811654083  CLST          90          1.0000000000
       270        90  TIP3  H2            5.7154529664       11.8749636443       -6.2490199899  CLST          90          1.0000000000
       271        91  TIP3  OH2           6.1334925215       -7.9832710047      -12.1623709840  CLST          91          1.0000000000
       272        91  TIP3  H1            6.5652749224       -8.8618059752      -12.2898147699  CLST          91          1.0000000000
       273        91  TIP3  H2            6.9592591729       -7.4225520570      -11.9907760275  CLST          91          1.0000000000
       274        92  TIP3  OH2           9.8655581221       11.5914677691        2.4699348381  CLST          92          1.0000000000
       275        92  TIP3  H1           10.0823481546       11.8571920850        3.3659301332  CLST          92          1.0000000000
       276        92  TIP3  H2            9.5081664328       12.4092570623        2.0497604175  CLST          92          1.0000000000
       277        93  TIP3  OH2          -8.6920488932        7.2687652467        2.7169486613  CLST          93          1.0000000000
       278        93  TIP3  H1           -8.6429149687        8.2183698354        2.8581460246  CLST          93          1.0000000000
       279        93  TIP3  H2           -7.7280196906        7.0343931075        2.7728967862  CLST          93          1.0000000000
       280        94  TIP3  OH2         -14.2633037837        6.5621357463        6.3921318215  CLST          94          1.0000000000
       281        94  TIP3  H1          -13.6734339685        7.3706695485        6.3030935654  CLST          94          1.0000000000
       282        94  TIP3  H2          -14.3813359662        6.4004746448        5.4489428336  CLST          94          1.0000000000
       283        95  TIP3  OH2           9.7966946976        5.7034823766       -1.8347165499  CLST          95          1.0000000000
       284        95  TIP3  H1            9.8185672765        5.9565654680       -0.8836822815  CLST          95          1.0000000000
       285        95  TIP3  H2           10.5612869288        5.0522625141       -1.7588407653  CLST          95          1.0000000000
       286        96  TIP3  OH2           9.7015875487      -11.0054089292       11.2552992601  CLST          96          1.0000000000
       287        96  TIP3  H1           10.3601118870      -11.2298211994       10.6341062985  CLST          96          1.0000000000
       288        96  TIP3  H2            9.2694297968      -11.8734767021       11.3808802548  CLST          96          1.0000000000
       289        97  TIP3  OH2          -7.7714127857        6.8573406137        8.4737520318  CLST          97          1.0000000000
       290        97  TIP3  H1           -7.4445079043        5.9317732523        8.7684093033  CLST          97          1.0000000000
       291        97  TIP3  H2           -8.7161202542        6.5580509990        8.3190923922  CLST          97          1.0000000000
       292        98  TIP3  OH2           6.0308368429        0.6989496755       -3.3755174911  CLST          98          1.0000000000
       293        98  TIP3  H1            6.7235042390        0.3004655050       -2.7756498140  CLST          98          1.0000000000
       294        98  TIP3  H2            5.3333784333        0.0490151408       -3.1547187261  CLST          98          1.0000000000
       295        99  TIP3  OH2          -6.8166688100      -11.5253376034        4.8995371744  CLST          99          1.0000000000
       296        99  TIP3  H1           -7.0203965131      -11.4688176230        5.8850455237  CLST          99          1.0000000000
       297        99  TIP3  H2           -5.9463554750      -11.9713158604        5.0747139676  CLST          99          1.0000000000
       298       100  TIP3  OH2           2.3158380749        0.5685747156       -9.1199061918  CLST         100          1.0000000000
       299       100  TIP3  H1            2.7403910983        0.5614659971      -10.0365902039  CLST         100          1.0000000000
       300       100  TIP3  H2            2.5677278124        1.4783686570       -8.8490304132  CLST         100          1.0000000000
       301       101  TIP3  OH2          12.7743081848       -6.9721028782        3.8534458711  CLST         101          1.0000000000
       302       101  TIP3  H1           12.6262479770       -7.4756413084        4.7308742844  CLST         101          1.0000000000
       303       101  TIP3  H2           13.5936948973       -6.6165884231        4.1437829632  CLST         101          1.0000000000
       304       102  TIP3  OH2         -12.2755824984       10.3485996489        1.4140975199  CLST         102          1.0000000000
       305       102  TIP3  H1          -12.9372470412       10.0081834974        2.1182647429  CLST         102          1.0000000000
       306       102  TIP3  H2          -12.7078811325        9.8125907536        0.6874302623  CLST         102          1.0000000000
       307       103  TIP3  OH2          -0.6774813563       -9.2547956645        7.8879987346  CLST         103          1.0000000000
       308       103  TIP3  H1            0.0140475390       -9.4414133928        8.6104822228  CLST         103          1.0000000000
       309       103  TIP3  H2           -1.2001099186      -10.0828299007        8.0052212555  CLST         103          1.0000000000
       310       104  TIP3  OH2          -4.3961412286      -12.1442085311       10.0127908824  CLST         104          1.0000000000
       311       104  TIP3  H1           -4.9776349925      -11.6844468049       10.6520346213  CLST         104          1.0000000000
       312       104  TIP3  H2           -5.0539139018      -12.7219370577        9.5224663538  CLST         104          1.0000000000
       313       105  TIP3  OH2          -5.1741622815       10.6004375682      -11.4933732165  CLST         105          1.0000000000
       314       105  TIP3  H1           -4.7531528946       11.1089599771      -12.2636083149  CLST         105          1.0000000000
       315       105  TIP3  H2           -5.7901351314       10.0443496077      -11.9253399480  CLST         105          1.0000000000
       316       106  TIP3  OH2           7.3428374894       -8.0703216001       -1.3434887764  CLST         106          1.0000000000
       317       106  TIP3  H1            7.9841338583       -7.4841240984       -1.7544443252  CLST         106          1.0000000000
       318       106  TIP3  H2            7.6658038743       -9.0063762265       -1.4086209700  CLST         106          1.0000000000
       319       107  TIP3  OH2          -8.3973249318       -4.6940778787        5.2331737725  CLST         107          1.0000000000
       320       107  TIP3  H1           -8.9313884710       -4.1066853131        4.6607760996  CLST         107          1.0000000000
       321       107  TIP3  H2           -7.5077763790       -4.4346836144        4.9036386543  CLST         107          1.0000000000
       322       108  TIP3  OH2         -10.6231100131        1.9401221865        9.4414265591  CLST         108          1.0000000000
       323       108  TIP3  H1           -9.6612613470        1.6634073451        9.3573792836  CLST         108          1.0000000000
       324       108  TIP3  H2          -11.0861039637        1.0599521685        9.7493289378  CLST         108          1.0000000000
       325       109  TIP3  OH2           2.4207725353        7.1139600087        8.7859252626  CLST         109          1.0000000000
       326       109  TIP3  H1            1.7721172038        6.6810792920        9.4050582387  CLST         109          1.0000000000
       327       109  TIP3  H2            3.1591598254        6.4614628514        8.7128765173  CLST         109          1.0000000000
       328       110  TIP3  OH2           1.6653948922       12.4413244149      -11.1396650698  CLST         110          1.0000000000
       329       110  TIP3  H1            2.3220794265       13.0978183129      -10.9718824033  CLST         110          1.0000000000
       330       110  TIP3  H2            1.2700121319       12.4273817703      -10.2334845441  CLST         110          1.0000000000
       331       111  TIP3  OH2          11.8601588743      -11.6618043225        9.3876750275  CLST         111          1.0000000000
       332       111  TIP3  H1           12.6111845599      -12.1823954096        9.6194815421  CLST         111          1.0000000000
       333       111  TIP3  H2           11.3711795219      -12.3017682669        8.8505075160  CLST         111          1.0000000000
       334       112  TIP3  OH2           6.5191342572       -0.0897537050        1.6630374278  CLST         112          1.0000000000
       335       112  TIP3  H1            7.1972013149        0.6337046282        1.8416110513  CLST         112          1.0000000000
       336       112  TIP3  H2            6.2647757278       -0.2681422917        2.5958333389  CLST         112          1.0000000000
       337       113  TIP3  OH2         -12.9027843924        0.9597571422       -0.1202889878  CLST         113          1.0000000000
       338       113  TIP3  H1          -13.4658384541        0.1011762726       -0.0635858260  CLST         113          1.0000000000
       339       113  TIP3  H2          -12.3909727957        0.7320803782       -0.9149951081  CLST         113          1.0000000000
       340       114  TIP3  OH2         -13.9815634435        3.5286286404       -0.4678421899  CLST         114          1.0000000000
       341       114  TIP3  H1          -13.8742999684        2.5801225181       -0.2726049817  CLST         114          1.0000000000
       342       114  TIP3  H2          -13.3994444456        3.5549091477       -1.2979769990  CLST         114          1.0000000000
       343       115  TIP3  OH2          -8.8929740281        0.1779183251      -10.6670188774  CLST         115          1.0000000000
       344       115  TIP3  H1           -8.0224708346        0.5983843436      -10.9381167165  CLST         115          1.0000000000
       345       115  TIP3  H2           -9.3898372501        0.9969058340      -10.9025227441  CLST         115          1.0000000000
       346       116  TIP3  OH2           6.9308195770       -5.7025711402        1.9824279060  CLST         116          1.0000000000
       347       116  TIP3  H1            7.7689270323       -6.0319353186        1.6476179880  CLST         116          1.0000000000
       348       116  TIP3  H2            7.0643325433       -4.7571853043        2.2831226247  CLST         116          1.0000000000
       349       117  TIP3  OH2          -0.8623883331        0.0973021054       12.4042777600  CLST         117          1.0000000000
       350       117  TIP3  H1           -0.4079905290       -0.6700612229       12.7603237023  CLST         117          1.0000000000
       351       117  TIP3  H2           -0.5492553091        0.6666101125       13.1110015835  CLST         117          1.0000000000
       352       118  TIP3  OH2           0.2107166280       -9.6859784951        4.8437688884  CLST         118          1.0000000000
       353       118  TIP3  H1           -0.0593812436       -9.5579357867        5.7951575337  CLST         118          1.0000000000
       354       118  TIP3  H2           -0.1642198398       -8.8300858454        4.4453358432  CLST         118          1.0000000000
       355       119  TIP3  OH2          -9.2848237461      -10.3797870997       -8.7140953590  CLST         119          1.0000000000
       356       119  TIP3  H1           -9.2662906925      -10.8503207430       -9.6215092100  CLST         119          1.0000000000
       357       119  TIP3  H2           -9.1108684371       -9.5079557577       -9.1041074423  CLST         119          1.0000000000
       358       120  TIP3  OH2           9.5121795010       -7.9223116682        1.3301452462  CLST         120          1.0000000000
       359       120  TIP3  H1            8.9121265502       -8.5930574349        0.9007800432  CLST         120          1.0000000000
       360       120  TIP3  H2            9.4082403924       -7.1926089272        0.6299842885  CLST         120          1.0000000000
       361       121  TIP3  OH2          -5.6204694669       -0.2228090445       -8.0992724031  CLST         121          1.0000000000
       362       121  TIP3  H1           -5.5522044752       -0.0066426958       -9.0299716301  CLST         121          1.0000000000
       363       121  TIP3  H2           -4.9202164839       -0.9687547509       -8.0490856378  CLST         121          1.0000000000
       364       122  TIP3  OH2          10.4194739460       11.9126704341        5.1790039711  CLST         122          1.0000000000
       365       122  TIP3  H1            9.5728727580       12.4448192504        5.4057426125  CLST         122          1.0000000000
       366       122  TIP3  H2           10.9258319252       12.1541591402        6.0328822293  CLST         122          1.0000000000
       367       123  TIP3  OH2          -7.3825596326       -5.4978349269      -11.2046459593  CLST         123          1.0000000000
       368       123  TIP3  H1           -6.5867552336       -6.0620645853      -11.2468554296  CLST         123          1.0000000000
       369       123  TIP3  H2           -7.4733617932       -5.5519568761      -10.2230400118  CLST         123          1.0000000000
       370       124  TIP3  OH2          -5.9957337100       -8.6802808975      -10.6413974000  CLST         124          1.0000000000
       371       124  TIP3  H1           -5.2302871717       -8.9872679284      -10.0967033103  CLST         124          1.0000000000
       372       124  TIP3  H2           -6.6546228344       -8.4335252070       -9.9633474185  CLST         124          1.0000000000
       373       125  TIP3  OH2         -13.4500734746        4.2364330541        8.1826352817  CLST         125          1.0000000000
       374       125  TIP3  H1          -13.2946387177        3.5755608512        7.4995172154  CLST         125          1.0000000000
       375       125  TIP3  H2          -13.8589999384        4.9497510506        7.5956237321  CLST         125          1.0000000000
       376       126  TIP3  OH2          -7.0017925511      -10.7025708349      -12.1282295519  CLST         126          1.0000000000
       377       126  TIP3  H1           -6.1362883262      -11.1944838498      -11.8569896557  CLST         126          1.0000000000
       378       126  TIP3  H2           -6.7783140051       -9.9179230123      -11.5146129201  CLST         126          1.0000000000
       379       127  TIP3  OH2          -7.3661760206      -11.6600011640       -7.1403714650  CLST         127          1.0000000000
       380       127  TIP3  H1           -7.9848977401      -12.3954606826       -7.0747334129  CLST         127          1.0000000000
       381       127  TIP3  H2           -7.8758981271      -11.0629502988       -7.7461209217  CLST         127          1.0000000000
       382       128  TIP3  OH2           9.9357012844        0.6926223164       -2.5063066215  CLST         128          1.0000000000
       383       128  TIP3  H1            9.0418839200        0.4329597893       -2.2486696335  CLST         128          1.0000000000
       384       128  TIP3  H2            9.7299775203        1.3386127002       -3.2675287834  CLST         128          1.0000000000
       385       129  TIP3  OH2          -7.7911385475        9.6268201926        1.0080938480  CLST         129          1.0000000000
       386       129  TIP3  H1           -6.9002107964       10.0923587988        1.2197340510  CLST         129          1.0000000000
       387       129  TIP3  H2           -7.2594209545        8.8143049401        0.7292395321  CLST         129          1.0000000000
       388       130  TIP3  OH2          -4.1157535380        4.0012668594        9.8205960603  CLST         130          1.0000000000
       389       130  TIP3  H1           -3.5757654601        4.8104614874        9.7785680179  CLST         130          1.0000000000
       390       130  TIP3  H2           -3.6203970445        3.5901058909       10.5494272960  CLST         130          1.0000000000
       391       131  TIP3  OH2           7.8735044018       -3.7721087606       -9.9324469106  CLST         131          1.0000000000
       392       131  TIP3  H1            7.7674451257       -3.0475982435       -9.2361675383  CLST         131          1.0000000000
       393       131  TIP3  H2            6.8716114915       -3.8815899315      -10.0456383304  CLST         131          1.0000000000
       394       132  TIP3  OH2         -11.4244397512       11.3574442626       12.3711190869  CLST         132          1.0000000000
       395       132  TIP3  H1          -11.1307040083       11.9976486425       11.6922027928  CLST         132          1.0000000000
       396       132  TIP3  H2          -12.0052161076       11.6815372434       12.9109599835  CLST         132          1.0000000000
       397       133  TIP3  OH2          10.4169283820        9.4451649813        8.5657666665  CLST         133          1.0000000000
       398       133  TIP3  H1           10.5260902241        9.1053830648        9.4843556549  CLST         133          1.0000000000
       399       133  TIP3  H2           11.3363864630        9.8537661611        8.5155371967  CLST         133          1.0000000000
       400       134  TIP3  OH2          -7.7934280497        5.8327229888       -6.0036951770  CLST         134          1.0000000000
       401       134  TIP3  H1           -8.5809168483        6.4040210663       -5.8488437510  CLST         134          1.0000000000
       402       134  TIP3  H2           -7.4646255043        5.8314886280       -5.0667600830  CLST         134          1.0000000000
       403       135  TIP3  OH2          10.9119664294      -11.2231126392      -13.1758525245  CLST         135          1.0000000000
       404       135  TIP3  H1           10.8840536907      -10.3054753937      -12.7662645695  CLST         135          1.0000000000
       405       135  TIP3  H2           11.3317381814      -11.1921248304      -13.9089188232  CLST         135          1.0000000000
       406       136  TIP3  OH2          -4.3074409287        1.8345009529       -7.0536004126  CLST         136          1.0000000000
       407       136  TIP3  H1           -4.8131533355        1.0302805794       -7.4433131880  CLST         136          1.0000000000
       408       136  TIP3  H2           -5.0424858310        2.2625974976       -6.5541782395  CLST         136          1.0000000000
       409       137  TIP3  OH2          12.8496779390       10.3013982742        8.9959025595  CLST         137          1.0000000000
       410       137  TIP3  H1           12.9696800719       10.0493089537        9.9471756904  CLST         137          1.0000000000
       411       137  TIP3  H2           13.7846284426       10.0899597444        8.7238769885  CLST         137          1.0000000000
       412       138  TIP3  OH2          -0.8169416169       -9.9401437714        1.5327658939  CLST         138          1.0000000000
       413       138  TIP3  H1           -1.1023310494       -9.8562103176        0.6090092368  CLST         138          1.0000000000
       414       138  TIP3  H2           -0.9455039330       -9.1295267931        2.0899299838  CLST         138          1.0000000000
       415       139  TIP3  OH2          -9.4756353289      -10.8017998046        4.5792611890  CLST         139          1.0000000000
       416       139  TIP3  H1           -9.9774007542      -10.7769546326        3.7452935949  CLST         139          1.0000000000
       417       139  TIP3  H2           -8.6306101800      -11.2512185994        4.4024983915  CLST         139          1.0000000000
       418       140  TIP3  OH2          -6.9811349914        3.6249331235       -0.4025054432  CLST         140          1.0000000000
       419       140  TIP3  H1           -6.1691795645        4.1584616498       -0.2167002617  CLST         140          1.0000000000
       420       140  TIP3  H2           -7.6929758677        4.2493232675       -0.6564384276  CLST         140          1.0000000000
       421       141  TIP3  OH2           2.0079218439       -4.4578715220       -3.5852897265  CLST         141          1.0000000000
       422       141  TIP3  H1            1.5883779347       -3.6136089703       -3.2597309883  CLST         141          1.0000000000
       423       141  TIP3  H2            2.6937018673       -3.9402623758       -4.0871720051  CLST         141          1.0000000000
       424       142  TIP3  OH2         -11.8122310028       -0.1029496457        4.8275010590  CLST         142          1.0000000000
       425       142  TIP3  H1          -11.9580604251        0.5490559215        5.5093761661  CLST         142          1.0000000000
       426       142  TIP3  H2          -11.9291329795        0.4898212836        4.0653862241  CLST         142          1.0000000000
       427       143  TIP3  OH2           9.3077951113       -5.7175553237       -8.3901843282  CLST         143          1.0000000000
       428       143  TIP3  H1            9.6696016859       -4.9262782650       -8.8703998632  CLST         143          1.0000000000
       429       143  TIP3  H2            9.9568972181       -6.4421087081       -8.5521491404  CLST         143          1.0000000000
       430       144  TIP3  OH2           3.3327405933       -2.8453537368        9.0524018313  CLST         144          1.0000000000
       431       144  TIP3  H1            2.6081237722       -2.4886340452        9.6094729324  CLST         144          1.0000000000
       432       144  TIP3  H2            3.3369792087       -2.1587518307        8.3313980479  CLST         144          1.0000000000
       433       145  TIP3  OH2         -10.2071820954       13.2763041746        3.2088870628  CLST         145          1.0000000000
       434       145  TIP3  H1          -10.6149527825       13.2764355694        2.2907241841  CLST         145          1.0000000000
       435       145  TIP3  H2           -9.8911224452       12.3474170830        3.1725883352  CLST         145          1.0000000000
       436       146  TIP3  OH2           9.1958511618        2.6410419178       -4.1538955598  CLST         146          1.0000000000
       437       146  TIP3  H1            8.9724420230        3.6109878724       -4.0427410789  CLST         146          1.0000000000
       438       146  TIP3  H2            8.4391270113        2.5426724308       -4.8353902002  CLST         146          1.0000000000
       439       147  TIP3  OH2         -11.0274419881       -0.3688712339       -4.2731648870  CLST         147          1.0000000000
       440       147  TIP3  H1          -10.0838839570       -0.6940002234       -4.4828734284  CLST         147          1.0000000000
       441       147  TIP3  H2          -11.4762319621       -0.6369659434       -5.1112597117  CLST         147          1.0000000000
       442       148  TIP3  OH2          -7.9431314233        1.3510056504        8.9071684723  CLST         148          1.0000000000
       443       148  TIP3  H1           -7.8535969649        1.0440083940        7.9612122615  CLST         148          1.0000000000
       444       148  TIP3  H2           -6.9467763121        1.3412717105        9.0229542976  CLST         148          1.0000000000
       445       149  TIP3  OH2           8.6628672074       -2.8027278400        0.8063419836  CLST         149          1.0000000000
       446       149  TIP3  H1            9.3704871076       -2.0728526377        0.7556441033  CLST         149          1.0000000000
       447       149  TIP3  H2            8.2173704168       -2.5481042666        1.6454063491  CLST         149          1.0000000000
       448       150  TIP3  OH2          -2.2073520948      -11.5861997750        8.5207877052  CLST         150          1.0000000000
       449       150  TIP3  H1           -3.0403580965      -11.8541507229        9.0381859920  CLST         150          1.0000000000
       450       150  TIP3  H2           -1.5583735886      -11.9885485829        9.1769534161  CLST         150          1.0000000000
       451       151  TIP3  OH2          -9.1237468207       -6.4029967367       -4.9159800385  CLST         151          1.0000000000
       452       151  TIP3  H1           -8.1824122329       -6.5128806281       -4.4558178632  CLST         151          1.0000000000
       453       151  TIP3  H2           -8.8966204080       -7.2431235146       -5.4728415183  CLST         151          1.0000000000
       454       152  TIP3  OH2           3.7985424476       -2.0825477654        4.9488911556  CLST         152          1.0000000000
       455       152  TIP3  H1            4.1241930664       -2.9521536067        5.2729899686  CLST         152          1.0000000000
       456       152  TIP3  H2            3.7247150255       -2.4663500760        4.0348282300  CLST         152          1.0000000000
       457       153  TIP3  OH2          -2.6676364866        4.7880020987      -14.2287781561  CLST         153          1.0000000000
       458       153  TIP3  H1           -2.0067189960        5.4716962091      -14.1849723983  CLST         153          1.0000000000
       459       153  TIP3  H2           -2.2969520243        4.3794047997      -13.4054622712  CLST         153          1.0000000000
       460       154  TIP3  OH2           4.5608809135       -6.8837352292        2.1489369266  CLST         154          1.0000000000
       461       154  TIP3  H1            5.3868650345       -6.3217502671        1.9530364375  CLST         154          1.0000000000
       462       154  TIP3  H2            3.8733856773       -6.3658477604        1.6637772726  CLST         154          1.0000000000
       463       155  TIP3  OH2           9.3645837543       -2.7368580190       10.1848119071  CLST         155          1.0000000000
       464       155  TIP3  H1            8.6716730076       -3.1315136715        9.5118936466  CLST         155          1.0000000000
       465       155  TIP3  H2            9.8198370020       -3.4154392555       10.4299023875  CLST         155          1.0000000000
       466       156  TIP3  OH2          -2.0176342000       11.2319291479       11.4847187992  CLST         156          1.0000000000
       467       156  TIP3  H1           -2.5706312046       11.5122792851       12.1985589890  CLST         156          1.0000000000
       468       156  TIP3  H2           -2.6037339494       10.6722351948       10.9966495377  CLST         156          1.0000000000
       469       157  TIP3  OH2           3.9804142331       -0.8237577572        7.3186130145  CLST         157          1.0000000000
       470       157  TIP3  H1            4.9244359679       -0.9705059095        7.5643235843  CLST         157          1.0000000000
       471       157  TIP3  H2            3.8838857343       -1.0903551607        6.3662200973  CLST         157          1.0000000000
       472       158  TIP3  OH2          10.6034448244        9.1517432416       13.1706664800  CLST         158          1.0000000000
       473       158  TIP3  H1            9.6971753110        8.7414245604       13.3191442869  CLST         158          1.0000000000
       474       158  TIP3  H2           10.2280216505        9.6839591862       12.4148831399  CLST         158          1.0000000000
       475       159  TIP3  OH2           0.5900671861      -12.1931802264        4.3876707440  CLST         159          1.0000000000
       476       159  TIP3  H1           -0.0562372451      -12.5324690776        5.0762293515  CLST         159          1.0000000000
       477       159  TIP3  H2            0.3417939263      -11.2301523182        4.5416152714  CLST         159          1.0000000000
       478       160  TIP3  OH2           7.5221468329       -3.4041115989        8.5322207827  CLST         160          1.0000000000
       479       160  TIP3  H1            7.0361048429       -3.6886240641        7.6846618413  CLST         160          1.0000000000
       480       160  TIP3  H2            6.9288327452       -2.5866998748        8.6520707904  CLST         160          1.0000000000
       481       161  TIP3  OH2          -2.4874940815       -2.4687044378        7.8602928581  CLST         161          1.0000000000
       482       161  TIP3  H1           -2.0587487540       -1.9046743683        8.5785197954  CLST         161          1.0000000000
       483       161  TIP3  H2           -3.3903271125       -2.4127427055        8.2693573640  CLST         161          1.0000000000
       484       162  TIP3  OH2          -0.6563722906        3.6301576631      -10.7415111471  CLST         162          1.0000000000
       485       162  TIP3  H1           -0.3496237115        4.3808769851      -11.3152116218  CLST         162          1.0000000000
       486       162  TIP3  H2           -0.6930029030        3.9121474080       -9.8142356121  CLST         162          1.0000000000
       487       163  TIP3  OH2         -10.0710871178        9.0573716015       11.1843365216  CLST         163          1.0000000000
       488       163  TIP3  H1          -10.7322313175        8.3354401685       11.3827527539  CLST         163          1.0000000000
       489       163  TIP3  H2          -10.3295767842        9.6908384095       11.8669652835  CLST         163          1.0000000000
       490       164  TIP3  OH2           3.9801295991      -10.4362396701       13.0485547116  CLST         164          1.0000000000
       491       164  TIP3  H1            4.2345543781       -9.5136451510       13.1102204756  CLST         164          1.0000000000
       492       164  TIP3  H2            4.8020132151      -10.8110300550       12.7195155778  CLST         164          1.0000000000
       493       165  TIP3  OH2         -12.0126622405       -5.4993783998        3.6670839376  CLST         165          1.0000000000
       494       165  TIP3  H1          -11.7076155864       -5.5591544024        4.6454213374  CLST         165          1.0000000000
       495       165  TIP3  H2          -12.8734591196       -5.8611867721        3.8426809189  CLST         165          1.0000000000
       496       166  TIP3  OH2          -1.5489112406       -6.4315671460      -10.3569362697  CLST         166          1.0000000000
       497       166  TIP3  H1           -0.6014105587       -6.4893795918      -10.3302987204  CLST         166          1.0000000000
       498       166  TIP3  H2           -1.9129634464       -7.3297282949      -10.2411299430  CLST         166          1.0000000000
       499       167  TIP3  OH2           8.0736305011       10.7023162452       -0.9570229750  CLST         167          1.0000000000
       500       167  TIP3  H1            8.5899911067       10.1529800074       -0.3225855476  CLST         167          1.0000000000
       501       167  TIP3  H2            8.6169182093       10.4842486240       -1.7824205093  CLST         167          1.0000000000
       502       168  TIP3  OH2          -0.7268531429      -13.4363550022        2.1260801938  CLST         168          1.0000000000
       503       168  TIP3  H1           -0.3088013688      -13.1423722025        3.0033279710  CLST         168          1.0000000000
       504       168  TIP3  H2            0.0769106814      -13.8948851212        1.7529034869  CLST         168          1.0000000000
       505       169  TIP3  OH2           5.0960193852        4.0492707816        3.2820077309  CLST         169          1.0000000000
       506       169  TIP3  H1            4.1136656440        3.8706594824        3.2502305064  CLST         169          1.0000000000
       507       169  TIP3  H2            5.1396969452        4.6827551452        2.5187379760  CLST         169          1.0000000000
       508       170  TIP3  OH2          -1.1924102194        4.3187843746        1.4867183440  CLST         170          1.0000000000
       509       170  TIP3  H1           -1.8976205439        5.0200985152        1.3533367948  CLST         170          1.0000000000
       510       170  TIP3  H2           -1.5190995026        3.4171646177        1.3115521855  CLST         170          1.0000000000
       511       171  TIP3  OH2          -3.0652295600        1.3517727052        7.3663476198  CLST         171          1.0000000000
       512       171  TIP3  H1           -2.8527922844        0.9222398805        6.4859347492  CLST         171          1.0000000000
       513       171  TIP3  H2           -2.1312506725        1.6291455926        7.6190624031  CLST         171          1.0000000000
       514       172  TIP3  OH2          -5.9306915999      -12.9805555363        7.9534374548  CLST         172          1.0000000000
       515       172  TIP3  H1           -6.5184374379      -13.6009043694        7.5564492850  CLST         172          1.0000000000
       516       172  TIP3  H2           -5.2222250451      -12.8424911813        7.2858848641  CLST         172          1.0000000000
       517       173  TIP3  OH2          10.1738130099      -12.5768477394        1.8266887578  CLST         173          1.0000000000
       518       173  TIP3  H1           10.3230404158      -12.4286368434        0.8909433546  CLST         173          1.0000000000
       519       173  TIP3  H2            9.2246615307      -12.4573117668        1.9416773845  CLST         173          1.0000000000
       520       174  TIP3  OH2          -0.1472651623        5.5886711839        9.8356507778  CLST         174          1.0000000000
       521       174  TIP3  H1           -0.2217439356        4.6420707900       10.0587070966  CLST         174          1.0000000000
       522       174  TIP3  H2           -1.0889474797        5.8837799067       10.0353681919  CLST         174          1.0000000000
       523       175  TIP3  OH2          -5.8344787011       10.4281408843       -3.6787050309  CLST         175          1.0000000000
       524       175  TIP3  H1           -5.4978249086       10.3896783525       -4.6022032065  CLST         175          1.0000000000
       525       175  TIP3  H2           -6.7063431462       10.0280646335       -4.0226997424  CLST         175          1.0000000000
       526       176  TIP3  OH2           6.6801937947        9.2129737831       -7.7106330078  CLST         176          1.0000000000
       527       176  TIP3  H1            7.0293308254       10.0799987204       -8.0525629270  CLST         176          1.0000000000
       528       176  TIP3  H2            6.0464046760        9.5539603996       -7.0510846097  CLST         176          1.0000000000
       529       177  TIP3  OH2          -3.8750741977      -11.3926435951       -1.5153951044  CLST         177          1.0000000000
       530       177  TIP3  H1           -3.3852948354      -11.9467477543       -0.8220294159  CLST         177          1.0000000000
       531       177  TIP3  H2           -4.6369070219      -11.1812467734       -0.9044180952  CLST         177          1.0000000000
       532       178  TIP3  OH2          10.6892201861       -8.9727694471      -11.5429366526  CLST         178          1.0000000000
       533       178  TIP3  H1           11.3407223444       -9.0899836845      -10.8394762871  CLST         178          1.0000000000
       534       178  TIP3  H2           10.6879677740       -7.9779741886      -11.6007069913  CLST         178          1.0000000000
       535       179  TIP3  OH2           6.4088564586       -0.9292070582        8.3870719962  CLST         179          1.0000000000
       536       179  TIP3  H1            6.0398296755       -0.3947638510        9.1566849317  CLST         179          1.0000000000
       537       179  TIP3  H2            6.8280247099       -0.2177966610        7.8877023612  CLST         179          1.0000000000
       538       180  TIP3  OH2          -7.5532360471        8.1148492265        6.0181823260  CLST         180          1.0000000000
       539       180  TIP3  H1           -7.4210147484        7.4681908563        6.7412202927  CLST         180          1.0000000000
       540       180  TIP3  H2           -8.5064015387        8.2722627889        6.1574103091  CLST         180          1.0000000000
       541       181  TIP3  OH2           5.9115028136      -13.0429959178       -0.3624431561  CLST         181          1.0000000000
       542       181  TIP3  H1            6.5026749350      -13.6042480723       -0.8324914236  CLST         181          1.0000000000
       543       181  TIP3  H2            6.2851589959      -13.0803679790        0.5531190168  CLST         181          1.0000000000
       544       182  TIP3  OH2          -1.7953257740       10.3838977197      -10.3977415743  CLST         182          1.0000000000
       545       182  TIP3  H1           -0.9336930428       10.7324380540      -10.0275289481  CLST         182          1.0000000000
       546       182  TIP3  H2           -2.3295735220       10.2920971204       -9.6012448616  CLST         182          1.0000000000
       547       183  TIP3  OH2          -5.3109352480        3.6421568069      -12.2634689704  CLST         183          1.0000000000
       548       183  TIP3  H1           -5.2123002768        3.5923673740      -11.2564122837  CLST         183          1.0000000000
       549       183  TIP3  H2           -6.2822179865        3.3285519444      -12.2095234014  CLST         183          1.0000000000
       550       184  TIP3  OH2           3.0107574811        8.2819227433       -2.3713472528  CLST         184          1.0000000000
       551       184  TIP3  H1            3.0287208841        7.4930971793       -1.7342677822  CLST         184          1.0000000000
       552       184  TIP3  H2            2.0588579495        7.9997462582       -2.6314593718  CLST         184          1.0000000000
       553       185  TIP3  OH2           7.4998226296        4.6493665824       12.1092638308  CLST         185          1.0000000000
       554       185  TIP3  H1            7.6969708916        3.6375201933       12.0761429495  CLST         185          1.0000000000
       555       185  TIP3  H2            7.1048417474        4.7403671627       12.9891898857  CLST         185          1.0000000000
       556       186  TIP3  OH2           3.8669784164        5.9369341946       -4.9926229422  CLST         186          1.0000000000
       557       186  TIP3  H1            4.0072023991        6.8858672573       -5.2304871503  CLST         186          1.0000000000
       558       186  TIP3  H2            4.0860552046        5.5083897827       -5.8358388047  CLST         186          1.0000000000
       559       187  TIP3  OH2           4.0566409049        1.6965592810       -5.5530179947  CLST         187          1.0000000000
       560       187  TIP3  H1            4.1170684999        1.7891498033       -4.5869522433  CLST         187          1.0000000000
       561       187  TIP3  H2            3.8017967647        0.7384024337       -5.6774401786  CLST         187          1.0000000000
       562       188  TIP3  OH2          -4.6554643032       -1.5012491527        4.9195209896  CLST         188          1.0000000000
       563       188  TIP3  H1           -4.6853877177       -0.5920085433        4.4934617766  CLST         188          1.0000000000
       564       188  TIP3  H2           -4.7648364586       -1.2476523601        5.9080552294  CLST         188          1.0000000000
       565       189  TIP3  OH2          -5.1157260831        3.4529087540      -15.1820047659  CLST         189          1.0000000000
       566       189  TIP3  H1           -5.0898236893        3.5463256611      -14.1985564973  CLST         189          1.0000000000
       567       189  TIP3  H2           -4.2203026923        3.8122774185      -15.3038751618  CLST         189          1.0000000000
       568       190  TIP3  OH2           7.2126807395       -5.7284972123        5.2267637018  CLST         190          1.0000000000
       569       190  TIP3  H1            6.9777128776       -5.9522130254        4.3049036084  CLST         190          1.0000000000
       570       190  TIP3  H2            8.1583725946       -5.6481921144        5.0228338864  CLST         190          1.0000000000
       571       191  TIP3  OH2         -11.0596165948       -4.8707145651       -6.5831796615  CLST         191          1.0000000000
       572       191  TIP3  H1          -10.2535563288       -4.4562308282       -6.9302588566  CLST         191          1.0000000000
       573       191  TIP3  H2          -10.7156814436       -5.6431223573       -6.0921999187  CLST         191          1.0000000000
       574       192  TIP3  OH2           8.8227616444       14.2421494185        1.8357770378  CLST         192          1.0000000000
       575       192  TIP3  H1            8.3808255414       14.4243428913        2.6331021273  CLST         192          1.0000000000
       576       192  TIP3  H2            9.1847075187       15.0771070850        1.5992137926  CLST         192          1.0000000000
       577       193  TIP3  OH2           6.3012367707      -12.0411140739       11.8301143480  CLST         193          1.0000000000
       578       193  TIP3  H1            6.9272449723      -12.8108873072       11.8382595827  CLST         193          1.0000000000
       579       193  TIP3  H2            6.4367775921      -11.6112129871       10.9956006450  CLST         193          1.0000000000
       580       194  TIP3  OH2          -6.3802876899       -4.3879225859       11.0954206430  CLST         194          1.0000000000
       581       194  TIP3  H1           -6.8792810331       -4.3967181830       11.8841813044  CLST         194          1.0000000000
       582       194  TIP3  H2           -7.0980273955       -3.9607240246       10.5055239371  CLST         194          1.0000000000
       583       195  TIP3  OH2          -7.4126634386        9.0356669865       10.3055027251  CLST         195          1.0000000000
       584       195  TIP3  H1           -8.2485338024        8.6912391604       10.7247266170  CLST         195          1.0000000000
       585       195  TIP3  H2           -7.5519406125        8.5752434994        9.4488703927  CLST         195          1.0000000000
       586       196  TIP3  OH2           6.0948967456      -12.3167407420       -6.0413836766  CLST         196          1.0000000000
       587       196  TIP3  H1            6.2991477738      -11.6147815912       -6.6954462525  CLST         196          1.0000000000
       588       196  TIP3  H2            5.2283228320      -11.8679799561       -5.7896213259  CLST         196          1.0000000000
       589       197  TIP3  OH2           2.3544927812       -9.1358101681       -2.7276367755  CLST         197          1.0000000000
       590       197  TIP3  H1            1.9477746959       -8.2909505561       -2.3940374170  CLST         197          1.0000000000
       591       197  TIP3  H2            3.2602598718       -8.8505107366       -2.7763395271  CLST         197          1.0000000000
       592       198  TIP3  OH2          10.8650888641        1.8714889669        4.5713559613  CLST         198          1.0000000000
       593       198  TIP3  H1            9.9076239904        1.9548928200        4.4875916861  CLST         198          1.0000000000
       594       198  TIP3  H2           10.9678486883        2.8012693052        4.2643617191  CLST         198          1.0000000000
       595       199  TIP3  OH2           0.0792621187        8.2857449972       -5.7293910852  CLST         199          1.0000000000
       596       199  TIP3  H1           -0.4818331417        8.7048671788       -5.0485738711  CLST         199          1.0000000000
       597       199  TIP3  H2           -0.2228521613        7.3153848012       -5.5348541373  CLST         199          1.0000000000
       598       200  TIP3  OH2          -7.6476074336       11.8322876891       11.0206640884  CLST         200          1.0000000000
       599       200  TIP3  H1           -7.6318858404       10.8468286232       11.1469101485  CLST         200          1.0000000000
       600       200  TIP3  H2           -7.3887471000       11.9041936543       10.0561780333  CLST         200          1.0000000000
       601       201  TIP3  OH2           4.4669636356        1.0141227538        0.1131718309  CLST         201          1.0000000000
       602       201  TIP3  H1            3.9975178384        1.5650087116        0.7665881155  CLST         201          1.0000000000
       603       201  TIP3  H2            5.2701531792        0.8374223217        0.6428920309  CLST         201          1.0000000000
       604       202  TIP3  OH2          -1.8827909151       -4.3330801368      -12.5281523661  CLST         202          1.0000000000
       605       202  TIP3  H1           -1.6332526127       -4.9454835543      -11.8015976705  CLST         202          1.0000000000
       606       202  TIP3  H2           -2.2713193547       -3.6182857249      -11.9812822614  CLST         202          1.0000000000
       607       203  TIP3  OH2          -0.8566588539       11.3201828381        7.4705138226  CLST         203          1.0000000000
       608       203  TIP3  H1           -0.0821270750       10.8500807239        7.7771167646  CLST         203          1.0000000000
       609       203  TIP3  H2           -1.5592710082       10.9654353414        8.0771492597  CLST         203          1.0000000000
       610       204  TIP3  OH2          -5.5383089041        6.4385782383      -13.3227049544  CLST         204          1.0000000000
       611       204  TIP3  H1           -4.7895462434        6.3667759886      -13.9475313848  CLST         204          1.0000000000
       612       204  TIP3  H2           -5.6769586110        5.4606200506      -13.1498289971  CLST         204          1.0000000000
       613       205  TIP3  OH2          -2.3454037019        7.1057271517       -2.7457882175  CLST         205          1.0000000000
       614       205  TIP3  H1           -2.3289082652        7.7719189139       -3.5340609449  CLST         205          1.0000000000
       615       205  TIP3  H2           -1.3761480517        7.0720126499       -2.5871477204  CLST         205          1.0000000000
       616       206  TIP3  OH2           4.9885167641      -10.9212613939       -9.7509665870  CLST         206          1.0000000000
       617       206  TIP3  H1            5.1945275982      -11.8649045425       -9.4712978381  CLST         206          1.0000000000
       618       206  TIP3  H2            5.6060724620      -10.4532964218       -9.1994950004  CLST         206          1.0000000000
       619       207  TIP3  OH2          13.0380070334       10.1341574332       12.2376157309  CLST         207          1.0000000000
       620       207  TIP3  H1           12.2460360122        9.8806971781       12.7314468002  CLST         207          1.0000000000
       621       207  TIP3  H2           13.6165189446       10.3239965182       12.8245555033  CLST         207          1.0000000000
       622       208  TIP3  OH2         -11.5375219912        2.3155109956        6.8160158799  CLST         208          1.0000000000
       623       208  TIP3  H1          -11.2126112708        2.1839886733        7.7280879340  CLST         208          1.0000000000
       624       208  TIP3  H2          -11.2109270926        3.2683208996        6.5903735928  CLST         208          1.0000000000
       625       209  TIP3  OH2           4.3164513826       -9.1945654281        7.2926746508  CLST         209          1.0000000000
       626       209  TIP3  H1            3.9365143447       -9.4717022546        6.4207528516  CLST         209          1.0000000000
       627       209  TIP3  H2            3.4668827482       -8.7193892762        7.4762014040  CLST         209          1.0000000000
       628       210  TIP3  OH2          12.1866235963      -11.1356546789        5.3232512360  CLST         210          1.0000000000
       629       210  TIP3  H1           12.4817736125      -11.0538088203        4.3326037554  CLST         210          1.0000000000
       630       210  TIP3  H2           12.3099208742      -10.1968315677        5.6518671893  CLST         210          1.0000000000
       631       211  TIP3  OH2          -0.3530083910       -9.0598852754       12.0446919574  CLST         211          1.0000000000
       632       211  TIP3  H1            0.1821062455       -9.5327862149       12.8042853758  CLST         211          1.0000000000
       633       211  TIP3  H2           -1.0771531460       -9.8167656197       12.0286843732  CLST         211          1.0000000000
       634       212  TIP3  OH2         -12.3119054496        3.5143957244       -2.3608510108  CLST         212          1.0000000000
       635       212  TIP3  H1          -11.8780717489        4.1936617905       -2.9281285686  CLST         212          1.0000000000
       636       212  TIP3  H2          -11.8497593159        2.6527238750       -2.5328260870  CLST         212          1.0000000000
       637       213  TIP3  OH2          -9.3638456367      -11.3383633139      -11.5107543081  CLST         213          1.0000000000
       638       213  TIP3  H1           -9.6279174838      -11.7536182037      -12.2445490515  CLST         213          1.0000000000
       639       213  TIP3  H2           -8.1043775136      -11.0962435359      -12.7094747291  CLST         213          1.0000000000
       640       214  TIP3  OH2          -6.6309202663        2.3062054427       -5.4696118295  CLST         214          1.0000000000
       641       214  TIP3  H1           -6.4852583285        1.3847856133       -5.0349441101  CLST         214          1.0000000000
       642       214  TIP3  H2           -7.1558763956        2.6981104546       -4.7000050812  CLST         214          1.0000000000
       643       215  TIP3  OH2         -11.8132092224      -12.8639334851        5.6493959243  CLST         215          1.0000000000
       644       215  TIP3  H1          -10.9155079100      -12.5245604864        5.5540217956  CLST         215          1.0000000000
       645       215  TIP3  H2          -11.9960871282      -12.8768051960        4.6789299328  CLST         215          1.0000000000
       646       216  TIP3  OH2         -12.1026526702       -2.4391842336        7.9540393972  CLST         216          1.0000000000
       647       216  TIP3  H1          -11.1347253318       -2.2694018187        7.9182007178  CLST         216          1.0000000000
       648       216  TIP3  H2          -12.0882786664       -3.2730370406        8.5279163642  CLST         216          1.0000000000
       649       217  TIP3  OH2           7.6345521902       -0.2127175164       -1.4343826166  CLST         217          1.0000000000
       650       217  TIP3  H1            8.1024992223       -1.0765912339       -1.5872808280  CLST         217          1.0000000000
       651       217  TIP3  H2            6.9829425660       -0.5299080003       -0.7854297744  CLST         217          1.0000000000
       652       218  TIP3  OH2          -8.2932195992       -3.8991078766        9.1013611949  CLST         218          1.0000000000
       653       218  TIP3  H1           -8.5527763197       -3.0108650632        8.7809033371  CLST         218          1.0000000000
       654       218  TIP3  H2           -7.6834505590       -4.2065958252        8.3726441030  CLST         218          1.0000000000
       655       219  TIP3  OH2         -12.5855550508       -4.5291913796       -2.7096253213  CLST         219          1.0000000000
       656       219  TIP3  H1          -12.6476894888       -3.5778544635       -2.4177849598  CLST         219          1.0000000000
       657       219  TIP3  H2          -12.9328199505       -4.3654856365       -3.6075818477  CLST         219          1.0000000000
       658       220  TIP3  OH2           6.4387068066        6.7985608108        7.7370420173  CLST         220          1.0000000000
       659       220  TIP3  H1            6.0548390201        6.3892697495        6.9185562281  CLST         220          1.0000000000
       660       220  TIP3  H2            5.6348405434        6.5586804751        8.2495867365  CLST         220          1.0000000000
       661       221  TIP3  OH2         -10.4798304710       -7.0892610436       10.2656156108  CLST         221          1.0000000000
       662       221  TIP3  H1           -9.6254676429       -7.0113017667       10.5261688880  CLST         221          1.0000000000
       663       221  TIP3  H2          -10.6243326810       -8.0911468567        9.9700353919  CLST         221          1.0000000000
       664       222  TIP3  OH2          -6.9310158978       -0.8962237086      -13.8132237027  CLST         222          1.0000000000
       665       222  TIP3  H1           -6.3583183618       -1.7321120645      -13.6470118728  CLST         222          1.0000000000
       666       222  TIP3  H2           -7.7546092988       -1.2462216141      -13.3920509548  CLST         222          1.0000000000
       667       223  TIP3  OH2           2.8227305848      -10.8669497197      -11.5962073926  CLST         223          1.0000000000
       668       223  TIP3  H1            2.3679955412      -11.7321323837      -11.4564954569  CLST         223          1.0000000000
       669       223  TIP3  H2            3.6460856093      -11.0331078451      -11.1682374205  CLST         223          1.0000000000
       670       224  TIP3  OH2           7.4501601090        4.6748198122        0.5953464387  CLST         224          1.0000000000
       671       224  TIP3  H1            8.3815553401        4.8619456384        0.7994020959  CLST         224          1.0000000000
       672       224  TIP3  H2            7.4380207549        4.3849061783       -0.3559542744  CLST         224          1.0000000000
       673       225  TIP3  OH2          -0.3705569332        4.5558564517       -1.2573057978  CLST         225          1.0000000000
       674       225  TIP3  H1           -0.9046617895        4.5303549194       -0.4474799433  CLST         225          1.0000000000
       675       225  TIP3  H2           -0.0554599430        3.5914660420       -1.3202596596  CLST         225          1.0000000000
       676       226  TIP3  OH2          -5.7428745243       -4.4289613236        7.5569580803  CLST         226          1.0000000000
       677       226  TIP3  H1           -5.6878246117       -5.4368159739        7.7051875576  CLST         226          1.0000000000
       678       226  TIP3  H2           -5.8742404333       -4.3928721347        6.6022001996  CLST         226          1.0000000000
       679       227  TIP3  OH2          11.6191373299       -4.1943528270       -9.8820027065  CLST         227          1.0000000000
       680       227  TIP3  H1           12.0095338124       -3.8057784378       -9.0248740314  CLST         227          1.0000000000
       681       227  TIP3  H2           11.3559793298       -3.3290035175      -10.2857398305  CLST         227          1.0000000000
       682       228  TIP3  OH2           3.6698194727       12.4573806487        3.3024332170  CLST         228          1.0000000000
       683       228  TIP3  H1            2.9102975196       11.9034021954        3.8415140948  CLST         228          1.0000000000
       684       228  TIP3  H2            3.0893403377       12.6004968591        2.5595670903  CLST         228          1.0000000000
       685       229  TIP3  OH2         -11.6379218342      -13.0484593980        2.9886973659  CLST         229          1.0000000000
       686       229  TIP3  H1          -11.7045431805      -13.8282551441        2.5522569895  CLST         229          1.0000000000
       687       229  TIP3  H2          -11.1556217359      -12.3749151232        2.4356790084  CLST         229          1.0000000000
       688       230  TIP3  OH2          12.2750115230        6.1454348333       -3.2911699615  CLST         230          1.0000000000
       689       230  TIP3  H1           13.2477308661        6.0356441580       -3.3826288105  CLST         230          1.0000000000
       690       230  TIP3  H2           12.1384214805        5.2507482190       -3.7547608095  CLST         230          1.0000000000
       691       231  TIP3  OH2           7.2506684004        3.2414049357        4.8182075227  CLST         231          1.0000000000
       692       231  TIP3  H1            7.4179508670        4.1984086720        5.0141752109  CLST         231          1.0000000000
       693       231  TIP3  H2            6.3291819407        3.3675592111        4.4366937782  CLST         231          1.0000000000
       694       232  TIP3  OH2         -10.3082535088        9.0028492163        7.5177252634  CLST         232          1.0000000000
       695       232  TIP3  H1          -10.8336719582        9.5115662334        8.2595920969  CLST         232          1.0000000000
       696       232  TIP3  H2          -10.3598391832        8.0895746291        7.9100874808  CLST         232          1.0000000000
       697       233  TIP3  OH2           3.6700890202       -5.2268847699        7.9633915725  CLST         233          1.0000000000
       698       233  TIP3  H1            4.2478074960       -5.6487777484        8.6368680051  CLST         233          1.0000000000
       699       233  TIP3  H2            3.4181294839       -4.4293342420        8.5255272576  CLST         233          1.0000000000
       700       234  TIP3  OH2          -3.6331622591        8.4556494137       -0.6233414226  CLST         234          1.0000000000
       701       234  TIP3  H1           -3.3723703422        7.8502214086       -1.3556252846  CLST         234          1.0000000000
       702       234  TIP3  H2           -3.5188461574        9.3247605904       -1.1059025315  CLST         234          1.0000000000
       703       235  TIP3  OH2          -1.9890813984       -4.1239890367       -9.0425340994  CLST         235          1.0000000000
       704       235  TIP3  H1           -1.9689085949       -5.0410767061       -9.4534751986  CLST         235          1.0000000000
       705       235  TIP3  H2           -1.0358074171       -3.8955995967       -9.2840786292  CLST         235          1.0000000000
       706       236  TIP3  OH2          -0.2523506066      -13.6518867360       -2.9855346907  CLST         236          1.0000000000
       707       236  TIP3  H1            0.2986799238      -12.8253596401       -2.6998362804  CLST         236          1.0000000000
       708       236  TIP3  H2           -0.8564277059      -13.4873163181       -2.2468250334  CLST         236          1.0000000000
       709       237  TIP3  OH2          -3.5851087248       -5.0847479277       11.0426247987  CLST         237          1.0000000000
       710       237  TIP3  H1           -4.5395038657       -4.9696056624       10.9103756476  CLST         237          1.0000000000
       711       237  TIP3  H2           -3.4624980760       -5.8230372895       10.3887198872  CLST         237          1.0000000000
       712       238  TIP3  OH2           0.5657941194        4.6646149602        7.3642695368  CLST         238          1.0000000000
       713       238  TIP3  H1           -0.0252363688        5.2068024558        6.8065783908  CLST         238          1.0000000000
       714       238  TIP3  H2            0.3526318446        5.1093080703        8.2309476383  CLST         238          1.0000000000
       715       239  TIP3  OH2         -14.0593616815        5.9283757964        3.4960478912  CLST         239          1.0000000000
       716       239  TIP3  H1          -14.0059109439        6.1891823677        2.5732550088  CLST         239          1.0000000000
       717       239  TIP3  H2          -13.6880449657        5.0341810946        3.3630355842  CLST         239          1.0000000000
       718       240  TIP3  OH2         -14.0929448395        8.8261634335       -0.3066229371  CLST         240          1.0000000000
       719       240  TIP3  H1          -14.8367846753        9.1355806982        0.1023340698  CLST         240          1.0000000000
       720       240  TIP3  H2          -13.9389564495        7.9024562465        0.1049569221  CLST         240          1.0000000000
       721       241  TIP3  OH2          -7.7653755717       -7.7750578175       -8.4769760619  CLST         241          1.0000000000
       722       241  TIP3  H1           -7.9628045214       -8.1308115879       -7.5877243038  CLST         241          1.0000000000
       723       241  TIP3  H2           -7.4194352631       -6.8986813483       -8.2272428392  CLST         241          1.0000000000
       724       242  TIP3  OH2           6.2504594772       -5.7076220275        9.7869212594  CLST         242          1.0000000000
       725       242  TIP3  H1            6.8503061652       -4.9257851285        9.5259317051  CLST         242          1.0000000000
       726       242  TIP3  H2            6.9689264817       -6.3676928195        9.5571362765  CLST         242          1.0000000000
       727       243  TIP3  OH2          -6.8194672033       -7.2112881088       -4.0997190904  CLST         243          1.0000000000
       728       243  TIP3  H1           -6.3413448492       -8.0113338440       -4.4436862032  CLST         243          1.0000000000
       729       243  TIP3  H2           -6.7353362877       -7.5666633868       -3.2021622419  CLST         243          1.0000000000
       730       244  TIP3  OH2           4.8955590929        5.7289015080        5.3918181231  CLST         244          1.0000000000
       731       244  TIP3  H1            5.1915794444        5.1943280877        4.5863273726  CLST         244          1.0000000000
       732       244  TIP3  H2            4.1895488366        5.0712931765        5.6413572353  CLST         244          1.0000000000
       733       245  TIP3  OH2          -7.0519989350        3.6744681431       -7.6188146045  CLST         245          1.0000000000
       734       245  TIP3  H1           -7.0199399359        3.0620281641       -6.8365045680  CLST         245          1.0000000000
       735       245  TIP3  H2           -7.4679307164        4.4414380946       -7.2616935466  CLST         245          1.0000000000
       736       246  TIP3  OH2           2.1081038309       -6.6234201067       -1.8796916239  CLST         246          1.0000000000
       737       246  TIP3  H1            2.0179894973       -5.8854782392       -2.6097479408  CLST         246          1.0000000000
       738       246  TIP3  H2            3.1095312265       -6.6977482498       -1.9258794207  CLST         246          1.0000000000
       739       247  TIP3  OH2           6.0697109944        8.2435152781        0.6707809822  CLST         247          1.0000000000
       740       247  TIP3  H1            6.3233319887        7.8725888913       -0.2122062065  CLST         247          1.0000000000
       741       247  TIP3  H2            5.9289638533        9.1819212209        0.5004910094  CLST         247          1.0000000000
       742       248  TIP3  OH2          -2.4683110497        8.3331702901      -11.8784443595  CLST         248          1.0000000000
       743       248  TIP3  H1           -2.2213435919        8.4662879712      -12.7888955654  CLST         248          1.0000000000
       744       248  TIP3  H2           -2.2449502833        9.1810978090      -11.4356670349  CLST         248          1.0000000000
       745       249  TIP3  OH2           8.8314770694        4.7462057547       -7.8971049422  CLST         249          1.0000000000
       746       249  TIP3  H1            8.2333945984        5.4020178576       -7.4645236771  CLST         249          1.0000000000
       747       249  TIP3  H2            8.6636102171        3.9338906442       -7.3897159685  CLST         249          1.0000000000
       748       250  TIP3  OH2          -7.6202452300        9.6708727782       -5.5024454972  CLST         250          1.0000000000
       749       250  TIP3  H1           -7.9725421980        8.9189942733       -5.9968451911  CLST         250          1.0000000000
       750       250  TIP3  H2           -7.7921143529       10.4122120645       -6.1091494887  CLST         250          1.0000000000
       751       251  TIP3  OH2          -3.6160204960       12.2986296280        2.9544193730  CLST         251          1.0000000000
       752       251  TIP3  H1           -3.4386135670       13.0249155568        2.5761465061  CLST         251          1.0000000000
       753       251  TIP3  H2           -3.0770024527       12.1490345125        3.8061712251  CLST         251          1.0000000000
       754       252  TIP3  OH2           5.9166055531        5.2400776569       14.6234547852  CLST         252          1.0000000000
       755       252  TIP3  H1            5.8537816071        6.2333919419       14.4139630683  CLST         252          1.0000000000
       756       252  TIP3  H2            5.3359142721        5.1382807191       15.2884044607  CLST         252          1.0000000000
       757       253  TIP3  OH2           6.0559680469       13.8598285878        3.2263374864  CLST         253          1.0000000000
       758       253  TIP3  H1            5.0794763576       13.8494502160        3.3756111750  CLST         253          1.0000000000
       759       253  TIP3  H2            5.9736010198       13.4442369172        2.3558510225  CLST         253          1.0000000000
       760       254  TIP3  OH2          -4.1842462988        8.1792290786        3.0840585940  CLST         254          1.0000000000
       761       254  TIP3  H1           -4.5243481590        9.0990362995        2.8349915517  CLST         254          1.0000000000
       762       254  TIP3  H2           -5.0529098482        7.7390616467        3.1101347857  CLST         254          1.0000000000
       763       255  TIP3  OH2          -7.1071356365       10.5412669905        4.2041830502  CLST         255          1.0000000000
       764       255  TIP3  H1           -7.9947062279       10.8736003036        4.4263625216  CLST         255          1.0000000000
       765       255  TIP3  H2           -7.1671657090        9.7647647608        4.8533426758  CLST         255          1.0000000000
       766       256  TIP3  OH2          11.3598190089        3.6611582241       -1.3449328506  CLST         256          1.0000000000
       767       256  TIP3  H1           11.7694019986        3.0195596944       -1.9310276689  CLST         256          1.0000000000
       768       256  TIP3  H2           10.9492433353        3.0611040486       -0.6717061192  CLST         256          1.0000000000
       769       257  TIP3  OH2          -8.6108270579       -1.0879449920       -4.8761557970  CLST         257          1.0000000000
       770       257  TIP3  H1           -7.7818147385       -0.7466728309       -4.4761661495  CLST         257          1.0000000000
       771       257  TIP3  H2           -8.3679277578       -0.9737154813       -5.8417596086  CLST         257          1.0000000000
       772       258  TIP3  OH2          -5.2979202401       10.2628742913        7.7540861940  CLST         258          1.0000000000
       773       258  TIP3  H1           -5.2980230189       10.9047066494        6.9942351120  CLST         258          1.0000000000
       774       258  TIP3  H2           -5.7758046188       10.7758674444        8.4104262107  CLST         258          1.0000000000
       775       259  TIP3  OH2          10.1253631181        6.1112889561        1.0038506756  CLST         259          1.0000000000
       776       259  TIP3  H1           11.0385782900        6.5075743146        1.1706906680  CLST         259          1.0000000000
       777       259  TIP3  H2            9.7733919961        6.4073886709        1.8689421049  CLST         259          1.0000000000
       778       260  TIP3  OH2          -4.8551735204        7.8098950780        8.7991948658  CLST         260          1.0000000000
       779       260  TIP3  H1           -5.2136427935        8.5447325149        8.2516302357  CLST         260          1.0000000000
       780       260  TIP3  H2           -5.6310968174        7.2310028607        8.8670432215  CLST         260          1.0000000000
       781       261  TIP3  OH2           0.6880159935       -4.2713891767       12.3816067505  CLST         261          1.0000000000
       782       261  TIP3  H1            0.2108716275       -6.3390683521       12.4809441550  CLST         261          1.0000000000
       783       261  TIP3  H2            1.2137719644       -4.7635597191       12.9350149276  CLST         261          1.0000000000
       784       262  TIP3  OH2         -11.0756662772        4.7266154377        5.9531360753  CLST         262          1.0000000000
       785       262  TIP3  H1          -10.3748999501        4.5399592915        5.2911175006  CLST         262          1.0000000000
       786       262  TIP3  H2          -11.8350857717        5.0048911854        5.4703327077  CLST         262          1.0000000000
       787       263  TIP3  OH2           1.7203376657        0.8832681705        6.5929700932  CLST         263          1.0000000000
       788       263  TIP3  H1            2.3088971308        1.5629943406        6.2025064410  CLST         263          1.0000000000
       789       263  TIP3  H2            2.3950099860        0.2514150534        6.9391618688  CLST         263          1.0000000000
       790       264  TIP3  OH2           5.2004153520       -4.2479441325       -9.6314845465  CLST         264          1.0000000000
       791       264  TIP3  H1            4.9085687571       -5.1707749111       -9.7817856587  CLST         264          1.0000000000
       792       264  TIP3  H2            4.4416753683       -3.8592298658      -10.2149042085  CLST         264          1.0000000000
       793       265  TIP3  OH2           7.5295768938        4.9387268388      -10.2237566768  CLST         265          1.0000000000
       794       265  TIP3  H1            7.6739605039        5.8756005400      -10.5485892975  CLST         265          1.0000000000
       795       265  TIP3  H2            8.1326425661        4.9409348174       -9.3801231491  CLST         265          1.0000000000
       796       266  TIP3  OH2          -7.9963191358       -8.7940788689       -0.0682805839  CLST         266          1.0000000000
       797       266  TIP3  H1           -8.0640207721       -9.0097745763        0.8748606653  CLST         266          1.0000000000
       798       266  TIP3  H2           -8.3530434384       -7.8656296349       -0.0454396277  CLST         266          1.0000000000
       799       267  TIP3  OH2           1.2015017529        2.5577656667       -5.2596857060  CLST         267          1.0000000000
       800       267  TIP3  H1            1.6346846395        3.2818033691       -4.7167663789  CLST         267          1.0000000000
       801       267  TIP3  H2            1.7215222435        1.8015803958       -4.9320568645  CLST         267          1.0000000000
       802       268  TIP3  OH2           5.2437201851       -4.5193118964       -6.9133130480  CLST         268          1.0000000000
       803       268  TIP3  H1            5.2160863662       -4.2885914547       -7.9024529764  CLST         268          1.0000000000
       804       268  TIP3  H2            4.9095890148       -5.4178064512       -6.9099077707  CLST         268          1.0000000000
       805       269  TIP3  OH2           5.5415761012       10.7919462078       -0.2485660661  CLST         269          1.0000000000
       806       269  TIP3  H1            6.5146245746       10.6457929918       -0.5576052560  CLST         269          1.0000000000
       807       269  TIP3  H2            5.6673311205       11.7078001870        0.0673550042  CLST         269          1.0000000000
       808       270  TIP3  OH2           1.2136675753        9.3803638568       -7.8807666479  CLST         270          1.0000000000
       809       270  TIP3  H1            1.5634967402        8.6705203929       -8.3918580921  CLST         270          1.0000000000
       810       270  TIP3  H2            0.7738527897        8.8747604894       -7.1138085437  CLST         270          1.0000000000
       811       271  TIP3  OH2          -6.3039419971       -9.1470056573       -2.1740923465  CLST         271          1.0000000000
       812       271  TIP3  H1           -5.5222748759       -9.1135733298       -1.6414468571  CLST         271          1.0000000000
       813       271  TIP3  H2           -7.0076176437       -9.0809029426       -1.4165278871  CLST         271          1.0000000000
       814       272  TIP3  OH2           9.5152516197       -8.1528634819        5.7933591421  CLST         272          1.0000000000
       815       272  TIP3  H1            8.5828989569       -8.4169554554        5.8153969819  CLST         272          1.0000000000
       816       272  TIP3  H2            9.5424966555       -7.6670787074        4.9186972793  CLST         272          1.0000000000
       817       273  TIP3  OH2         -13.8581175907        9.5183840032        3.2591749401  CLST         273          1.0000000000
       818       273  TIP3  H1          -14.1803120096        9.9174473319        4.1327166732  CLST         273          1.0000000000
       819       273  TIP3  H2          -13.5986765684        8.7103547611        3.7142738617  CLST         273          1.0000000000
       820       274  TIP3  OH2           4.1261522563       12.9697826082       -4.0340852836  CLST         274          1.0000000000
       821       274  TIP3  H1            3.9511566084       11.9815178222       -2.8314314598  CLST         274          1.0000000000
       822       274  TIP3  H2            3.9827754217       13.7781843041       -3.6246211990  CLST         274          1.0000000000
       823       275  TIP3  OH2           8.8626167094      -11.2938362099        5.8985984679  CLST         275          1.0000000000
       824       275  TIP3  H1            9.5015355988      -10.6121861849        6.1216566475  CLST         275          1.0000000000
       825       275  TIP3  H2            9.3455779913      -12.0569202384        5.5353431321  CLST         275          1.0000000000
       826       276  TIP3  OH2          -0.0933515721       -5.9587827118        1.4686330473  CLST         276          1.0000000000
       827       276  TIP3  H1           -0.6897116721       -6.4460354111        0.9030551487  CLST         276          1.0000000000
       828       276  TIP3  H2           -0.7629579678       -5.2675612583        1.9000963475  CLST         276          1.0000000000
       829       277  TIP3  OH2           6.4527945135        6.5385170252       -6.8704237979  CLST         277          1.0000000000
       830       277  TIP3  H1            5.8720641993        6.0238271073       -7.4412961491  CLST         277          1.0000000000
       831       277  TIP3  H2            6.7102437262        7.3038003607       -7.3684415501  CLST         277          1.0000000000
       832       278  TIP3  OH2          -0.5949572113       -7.5742979754        3.5567235062  CLST         278          1.0000000000
       833       278  TIP3  H1           -0.4923291754       -6.9336897978        2.7995749135  CLST         278          1.0000000000
       834       278  TIP3  H2           -0.7223326008       -6.8526896418        4.2404286535  CLST         278          1.0000000000
       835       279  TIP3  OH2         -13.5789848083        6.5134490459        0.5992611246  CLST         279          1.0000000000
       836       279  TIP3  H1          -13.8460600869        5.6112724086        0.2796757361  CLST         279          1.0000000000
       837       279  TIP3  H2          -12.6226920799        6.3873917809        0.7250555952  CLST         279          1.0000000000
       838       280  TIP3  OH2          -3.2697282001      -10.2072282192        5.5238163113  CLST         280          1.0000000000
       839       280  TIP3  H1           -3.2814047759       -9.2883711028        5.8515020501  CLST         280          1.0000000000
       840       280  TIP3  H2           -3.6204933453       -9.9630283035        4.6167160745  CLST         280          1.0000000000
       841       281  TIP3  OH2           8.1611431156        7.8016002890      -10.5736876837  CLST         281          1.0000000000
       842       281  TIP3  H1            8.6196404363        8.6640289357      -10.4005943983  CLST         281          1.0000000000
       843       281  TIP3  H2            7.2379274916        8.0666570808      -10.4947257329  CLST         281          1.0000000000
       844       282  TIP3  OH2          -7.7500094021      -11.7944430201        9.9646414457  CLST         282          1.0000000000
       845       282  TIP3  H1           -8.6296227094      -11.6330754244        9.7361638233  CLST         282          1.0000000000
       846       282  TIP3  H2           -7.2922174306      -12.0800425552        9.1210595609  CLST         282          1.0000000000
       847       283  TIP3  OH2           4.4868046086        8.6527203235       -4.7217299883  CLST         283          1.0000000000
       848       283  TIP3  H1            4.7222558141        9.6296467764       -4.7697167102  CLST         283          1.0000000000
       849       283  TIP3  H2            3.8745001355        8.6429824101       -3.9600023008  CLST         283          1.0000000000
       850       284  TIP3  OH2          11.8745051823        8.3593169706       -1.3817544914  CLST         284          1.0000000000
       851       284  TIP3  H1           12.0703057015        7.7195932335       -2.0776264552  CLST         284          1.0000000000
       852       284  TIP3  H2           11.0195119077        8.6500691215       -1.6756054206  CLST         284          1.0000000000
       853       285  TIP3  OH2          -5.4315544469        1.9343381471        8.8564147518  CLST         285          1.0000000000
       854       285  TIP3  H1           -4.6926243040        1.7870570176        8.1806657531  CLST         285          1.0000000000
       855       285  TIP3  H2           -4.8877607084        2.6758711022        9.3471204851  CLST         285          1.0000000000
       856       286  TIP3  OH2           2.8893951317        5.7554151703       -0.5639145269  CLST         286          1.0000000000
       857       286  TIP3  H1            2.2086288103        5.7602743168        0.1898356797  CLST         286          1.0000000000
       858       286  TIP3  H2            3.6337402936        5.9474006619        0.0552257622  CLST         286          1.0000000000
       859       287  TIP3  OH2          -4.2369336445        9.3663869013       11.2839496772  CLST         287          1.0000000000
       860       287  TIP3  H1           -4.6519474336       10.1502673438       11.7249443847  CLST         287          1.0000000000
       861       287  TIP3  H2           -5.0340905133        9.0862248556       10.7595686682  CLST         287          1.0000000000
       862       288  TIP3  OH2           5.8499784178        3.7245299629       -9.4258470593  CLST         288          1.0000000000
       863       288  TIP3  H1            5.8019927908        3.0780274097      -10.0964291923  CLST         288          1.0000000000
       864       288  TIP3  H2            6.5542487071        4.3298617894       -9.8137292763  CLST         288          1.0000000000
       865       289  TIP3  OH2          -7.0693373438       -5.1045486840       -8.3323099802  CLST         289          1.0000000000
       866       289  TIP3  H1           -7.8513494361       -4.4545136544       -8.1651133535  CLST         289          1.0000000000
       867       289  TIP3  H2           -6.2978200892       -4.8550625329       -7.9286326064  CLST         289          1.0000000000
       868       290  TIP3  OH2           2.1879768907      -11.9170908590       11.2695131003  CLST         290          1.0000000000
       869       290  TIP3  H1            2.7408114040      -12.6872322423       11.2170069228  CLST         290          1.0000000000
       870       290  TIP3  H2            2.7679650005      -11.2972953789       11.7516050071  CLST         290          1.0000000000
       871       291  TIP3  OH2         -10.2408868167       -3.5758382588        2.9047702950  CLST         291          1.0000000000
       872       291  TIP3  H1          -11.0274477304       -4.1201288971        3.2165497663  CLST         291          1.0000000000
       873       291  TIP3  H2          -10.3949040778       -3.4736543673        1.9709670831  CLST         291          1.0000000000
       874       292  TIP3  OH2          12.1392105612        3.6109206541       -4.7066268496  CLST         292          1.0000000000
       875       292  TIP3  H1           11.2070499017        3.3316389060       -4.5638957727  CLST         292          1.0000000000
       876       292  TIP3  H2           12.0288016686        4.0705002248       -5.6080306757  CLST         292          1.0000000000
       877       293  TIP3  OH2           8.9813746177       10.6362874268       11.0772685154  CLST         293          1.0000000000
       878       293  TIP3  H1            8.8495282533       11.3945197146       11.6530307746  CLST         293          1.0000000000
       879       293  TIP3  H2            9.0246772148       11.1530915245       10.2017934413  CLST         293          1.0000000000
       880       294  TIP3  OH2           4.0507751009        4.5322437243       -2.4240093910  CLST         294          1.0000000000
       881       294  TIP3  H1            3.5741783481        5.0510140639       -1.7181128405  CLST         294          1.0000000000
       882       294  TIP3  H2            4.1072084576        5.1410354970       -3.1844367439  CLST         294          1.0000000000
       883       295  TIP3  OH2          -2.3454948473      -13.7108349838       -8.7229064478  CLST         295          1.0000000000
       884       295  TIP3  H1           -2.8993308585      -13.3598913872       -8.0185724770  CLST         295          1.0000000000
       885       295  TIP3  H2           -1.4979216643      -13.7688561454       -8.2262871782  CLST         295          1.0000000000
       886       296  TIP3  OH2          -1.5566961425       11.7017198706      -13.1668878276  CLST         296          1.0000000000
       887       296  TIP3  H1           -0.7612438599       11.1891021961      -13.3705322899  CLST         296          1.0000000000
       888       296  TIP3  H2           -1.6344882989       11.4962302493      -12.2026305305  CLST         296          1.0000000000
       889       297  TIP3  OH2           8.0583305200       -0.4394952737       11.5003944287  CLST         297          1.0000000000
       890       297  TIP3  H1            8.5395551119       -1.1644369785       11.1329883088  CLST         297          1.0000000000
       891       297  TIP3  H2            7.2161406399       -0.8990547068       11.7206355787  CLST         297          1.0000000000
       892       298  TIP3  OH2           0.8980738240       -1.3530287122       -7.4263166101  CLST         298          1.0000000000
       893       298  TIP3  H1            1.2008343184       -0.7312962391       -8.1527227329  CLST         298          1.0000000000
       894       298  TIP3  H2            0.6934092068       -2.1001248602       -8.1004615974  CLST         298          1.0000000000
       895       299  TIP3  OH2           3.0869359921       10.2783206314       12.9116380167  CLST         299          1.0000000000
       896       299  TIP3  H1            2.5810627332       11.0147809592       12.5057340210  CLST         299          1.0000000000
       897       299  TIP3  H2            2.2465424851        9.8783249515       13.0744558460  CLST         299          1.0000000000
       898       300  TIP3  OH2         -10.8585589218        5.3025194242       -3.7245014687  CLST         300          1.0000000000
       899       300  TIP3  H1          -10.8566862777        5.8345141706       -4.5479960395  CLST         300          1.0000000000
       900       300  TIP3  H2          -11.0147789685        6.1158411315       -3.1301578651  CLST         300          1.0000000000
       901       301  TIP3  OH2           9.4991416929       -8.3181468017       11.3542886799  CLST         301          1.0000000000
       902       301  TIP3  H1            9.3677702201       -8.0800277822       12.3073650328  CLST         301          1.0000000000
       903       301  TIP3  H2            9.6067162857       -9.3302054608       11.4483408765  CLST         301          1.0000000000
       904       302  TIP3  OH2           7.8746646429       12.8528571549        5.4629345759  CLST         302          1.0000000000
       905       302  TIP3  H1            7.5306632790       13.2569676215        4.6380466346  CLST         302          1.0000000000
       906       302  TIP3  H2            7.1445971223       12.2095814278        5.5106003636  CLST         302          1.0000000000
       907       303  TIP3  OH2         -11.0902040946        1.1912977559       -2.1752934041  CLST         303          1.0000000000
       908       303  TIP3  H1          -10.1637499452        1.3187648353       -1.9370916801  CLST         303          1.0000000000
       909       303  TIP3  H2          -11.0874929512        0.5893490288       -2.9788699710  CLST         303          1.0000000000
       910       304  TIP3  OH2          -7.9987480190        1.2226609036      -14.8865179868  CLST         304          1.0000000000
       911       304  TIP3  H1           -7.5003090607        0.3773871398      -14.7033727865  CLST         304          1.0000000000
       912       304  TIP3  H2           -7.4978675705        1.7941268338      -15.4382380127  CLST         304          1.0000000000
       913       305  TIP3  OH2           3.4742741948       -3.9673760400       13.8882915714  CLST         305          1.0000000000
       914       305  TIP3  H1            4.1319039838       -4.5488833693       13.4736389612  CLST         305          1.0000000000
       915       305  TIP3  H2            3.9483422281       -3.1175720477       13.8062933246  CLST         305          1.0000000000
       916       306  TIP3  OH2           8.8320548574      -11.9628995564      -11.2712546042  CLST         306          1.0000000000
       917       306  TIP3  H1            9.6559005545      -11.8018730894      -11.7854867617  CLST         306          1.0000000000
       918       306  TIP3  H2            8.8669403796      -12.8531572096      -11.1224953628  CLST         306          1.0000000000
       919       307  TIP3  OH2           9.1988647482        7.9050500115       -7.6488060006  CLST         307          1.0000000000
       920       307  TIP3  H1            8.6047389942        8.5961983156       -7.9028816267  CLST         307          1.0000000000
       921       307  TIP3  H2            9.2976423682        8.1026152799       -6.6737730711  CLST         307          1.0000000000
       922       308  TIP3  OH2         -10.8833955332       -4.8897063459        8.7975808881  CLST         308          1.0000000000
       923       308  TIP3  H1          -10.8890358598       -5.7402722656        9.4110276471  CLST         308          1.0000000000
       924       308  TIP3  H2           -9.9969836096       -4.5167625327        8.9801492138  CLST         308          1.0000000000
       925       309  TIP3  OH2          -1.8806587186       -0.5650029140        5.5535673823  CLST         309          1.0000000000
       926       309  TIP3  H1           -2.6538722737       -0.8218691623        5.0494894429  CLST         309          1.0000000000
       927       309  TIP3  H2           -1.8482802853       -1.2557630264        6.2304382203  CLST         309          1.0000000000
       928       310  TIP3  OH2          -4.9138269295       -0.6046195060        7.2762031249  CLST         310          1.0000000000
       929       310  TIP3  H1           -4.3141110233        0.1222761061        7.5561052480  CLST         310          1.0000000000
       930       310  TIP3  H2           -4.9298965610       -1.2182331127        8.0660431547  CLST         310          1.0000000000
       931       311  TIP3  OH2          -7.3630068000        8.3377698027      -12.3317933901  CLST         311          1.0000000000
       932       311  TIP3  H1           -6.6580970643        7.7769932341      -12.7473165972  CLST         311          1.0000000000
       933       311  TIP3  H2           -7.3497792566        7.8457613899      -11.5145695736  CLST         311          1.0000000000
       934       312  TIP3  OH2           6.5799001840       -0.8831803885       -6.2991378584  CLST         312          1.0000000000
       935       312  TIP3  H1            6.4615009524       -0.1721126357       -5.6158399308  CLST         312          1.0000000000
       936       312  TIP3  H2            6.2068084771       -1.6250186629       -5.8058103314  CLST         312          1.0000000000
       937       313  TIP3  OH2          -9.0419942338      -10.6017978926        7.2510679573  CLST         313          1.0000000000
       938       313  TIP3  H1           -8.3590421861       -9.9028136779        6.9768648690  CLST         313          1.0000000000
       939       313  TIP3  H2           -9.4390054459      -10.6887706400        6.3072392527  CLST         313          1.0000000000
       940       314  TIP3  OH2          -1.4502612297      -12.1287780647      -10.6910948724  CLST         314          1.0000000000
       941       314  TIP3  H1           -1.5246220399      -11.3052825986      -10.1148846382  CLST         314          1.0000000000
       942       314  TIP3  H2           -1.9587111547      -12.6930929430      -10.0723424260  CLST         314          1.0000000000
       943       315  TIP3  OH2          -1.5084234412       -0.6074502951       -6.5941090985  CLST         315          1.0000000000
       944       315  TIP3  H1           -0.5568944602       -0.8578962660       -6.8834712762  CLST         315          1.0000000000
       945       315  TIP3  H2           -1.2944605941       -0.1569708886       -5.6997211292  CLST         315          1.0000000000
       946       316  TIP3  OH2         -13.1615020602       -3.8512437116       -5.4054093787  CLST         316          1.0000000000
       947       316  TIP3  H1          -12.4658093273       -4.2619492490       -6.0204808231  CLST         316          1.0000000000
       948       316  TIP3  H2          -12.7701911552       -2.9777495305       -5.4715413543  CLST         316          1.0000000000
       949       317  TIP3  OH2          -6.1659259456        0.1039295502       -3.7457783953  CLST         317          1.0000000000
       950       317  TIP3  H1           -5.2708580934        0.1047119503       -3.2513960956  CLST         317          1.0000000000
       951       317  TIP3  H2           -6.6871501205        0.2797729614       -2.9392422883  CLST         317          1.0000000000
       952       318  TIP3  OH2          -3.8627110684       -9.7849135237       -9.4291233503  CLST         318          1.0000000000
       953       318  TIP3  H1           -3.8299002340      -10.0809230256       -8.4473413578  CLST         318          1.0000000000
       954       318  TIP3  H2           -2.8787848851       -9.6333358220       -9.4756196940  CLST         318          1.0000000000
       955       319  TIP3  OH2           5.6769138084       10.7670677182        8.5389675711  CLST         319          1.0000000000
       956       319  TIP3  H1            6.4980041583       10.7212138351        8.0234118883  CLST         319          1.0000000000
       957       319  TIP3  H2            5.8112981562       11.2824265096        9.2929494434  CLST         319          1.0000000000
       958       320  TIP3  OH2         -10.6114612394        1.0526099642      -14.5461369716  CLST         320          1.0000000000
       959       320  TIP3  H1           -9.6105793118        1.0092653257      -14.6010653362  CLST         320          1.0000000000
       960       320  TIP3  H2          -10.6493963626        0.1359666213      -14.2284089598  CLST         320          1.0000000000
       961       321  TIP3  OH2          -9.8175684170       10.3165105235       -9.4622300539  CLST         321          1.0000000000
       962       321  TIP3  H1          -10.6802981402        9.8563722420      -10.7479083148  CLST         321          1.0000000000
       963       321  TIP3  H2          -10.0689369367       10.2311020590      -11.4038804466  CLST         321          1.0000000000
       964       322  TIP3  OH2         -12.6897855383       -1.6464616315       -2.5566282347  CLST         322          1.0000000000
       965       322  TIP3  H1          -12.3175334161       -1.2826703393       -3.3909913687  CLST         322          1.0000000000
       966       322  TIP3  H2          -11.8083373660       -1.6226490727       -2.0643455969  CLST         322          1.0000000000
       967       323  TIP3  OH2          -1.0039470802        3.9360715604        4.3235694804  CLST         323          1.0000000000
       968       323  TIP3  H1           -0.5071442114        3.0818367892        4.3533610243  CLST         323          1.0000000000
       969       323  TIP3  H2           -1.1104972828        4.1171513561        3.3674701024  CLST         323          1.0000000000
       970       324  TIP3  OH2         -10.9027966637        6.3733270340        1.3354767354  CLST         324          1.0000000000
       971       324  TIP3  H1          -11.2275855458        5.8846018007        2.1270269942  CLST         324          1.0000000000
       972       324  TIP3  H2          -10.1404483276        6.8254100807        1.8652216168  CLST         324          1.0000000000
       973       325  TIP3  OH2          -4.7026002014        0.8374533411        3.6557167325  CLST         325          1.0000000000
       974       325  TIP3  H1           -5.7211235718        0.8227645558        3.6458228700  CLST         325          1.0000000000
       975       325  TIP3  H2           -4.6435723661        1.7364698359        3.2868778597  CLST         325          1.0000000000
       976       326  TIP3  OH2           9.1705093211        8.6675144299       -2.8769756348  CLST         326          1.0000000000
       977       326  TIP3  H1            9.0306751473        8.0504095627       -2.1172656346  CLST         326          1.0000000000
       978       326  TIP3  H2            8.3496015040        8.5990024579       -3.3831279515  CLST         326          1.0000000000
       979       327  TIP3  OH2          10.3979867633       -3.7383098580      -13.0710766522  CLST         327          1.0000000000
       980       327  TIP3  H1           10.7401058989       -3.4665037164      -13.8024756662  CLST         327          1.0000000000
       981       327  TIP3  H2           10.2660877639       -3.0129024557      -12.3859823694  CLST         327          1.0000000000
       982       328  TIP3  OH2           2.1911638624        7.0752714030       -9.8145117058  CLST         328          1.0000000000
       983       328  TIP3  H1            2.4954204044        6.4355856031       -9.1010561667  CLST         328          1.0000000000
       984       328  TIP3  H2            3.1279253244        7.1774918707       -9.9723455871  CLST         328          1.0000000000
       985       329  TIP3  OH2           1.3869685111      -11.5695155909       -2.0923684389  CLST         329          1.0000000000
       986       329  TIP3  H1            1.6053686792      -10.6286234029       -2.3871556881  CLST         329          1.0000000000
       987       329  TIP3  H2            2.2226545662      -11.7325539574       -1.5719050217  CLST         329          1.0000000000
       988       330  TIP3  OH2          -9.3613637020       -1.0676802008        3.4775997328  CLST         330          1.0000000000
       989       330  TIP3  H1           -9.6323896996       -2.0564546187        3.4022171151  CLST         330          1.0000000000
       990       330  TIP3  H2          -10.1545792004       -0.7478020995        3.9093113045  CLST         330          1.0000000000
       991       331  TIP3  OH2          12.3485802789        9.6193211310       -9.2178579240  CLST         331          1.0000000000
       992       331  TIP3  H1           13.0108907956        9.2480423395       -9.8576919365  CLST         331          1.0000000000
       993       331  TIP3  H2           11.9196517011        8.6975337654       -9.0728385719  CLST         331          1.0000000000
       994       332  TIP3  OH2          11.4671114605       -1.4221090671       -4.4595520977  CLST         332          1.0000000000
       995       332  TIP3  H1           12.3409939541       -1.6212404706       -4.9508704268  CLST         332          1.0000000000
       996       332  TIP3  H2           11.7818971091       -0.6215962750       -3.9982655058  CLST         332          1.0000000000
       997       333  TIP3  OH2          10.6193468600      -14.1528021433        7.9673772181  CLST         333          1.0000000000
       998       333  TIP3  H1            9.7166889006      -13.8743027479        8.1830728582  CLST         333          1.0000000000
       999       333  TIP3  H2           10.5438230364      -14.0149022505        7.0108099971  CLST         333          1.0000000000
      1000       334  TIP3  OH2         -10.6520054609       -9.6707389828        9.0826281701  CLST         334          1.0000000000
      1001       334  TIP3  H1          -11.4614801805      -10.0624135369        8.7264658933  CLST         334          1.0000000000
      1002       334  TIP3  H2          -10.0663315761       -9.9447878929        8.3832442095  CLST         334          1.0000000000
      1003       335  TIP3  OH2           6.8746283992      -10.0826440802        1.4950475804  CLST         335          1.0000000000
      1004       335  TIP3  H1            6.7769264168       -9.9462104206        2.4295734596  CLST         335          1.0000000000
      1005       335  TIP3  H2            5.9521980125      -10.2706989061        1.2272495609  CLST         335          1.0000000000
      1006       336  TIP3  OH2          -9.2371703842       -3.5979454417       -3.5326214024  CLST         336          1.0000000000
      1007       336  TIP3  H1           -9.5905174214       -4.4185112356       -3.9388439018  CLST         336          1.0000000000
      1008       336  TIP3  H2           -9.2517687700       -3.1303185321       -4.4054723979  CLST         336          1.0000000000
      1009       337  TIP3  OH2          -1.5247954556       -4.9472088240        8.0728239753  CLST         337          1.0000000000
      1010       337  TIP3  H1           -1.4229931961       -4.5134780510        8.9959322176  CLST         337          1.0000000000
      1011       337  TIP3  H2           -2.1145602146       -4.1858375545        7.7710288289  CLST         337          1.0000000000
      1012       338  TIP3  OH2          -0.4174045493        2.7735812762       10.5573783626  CLST         338          1.0000000000
      1013       338  TIP3  H1           -0.4518840478        2.3879698804        9.6501408412  CLST         338          1.0000000000
      1014       338  TIP3  H2            0.0138736839        2.1052176022       11.0753957946  CLST         338          1.0000000000
      1015       339  TIP3  OH2           7.9233838043        8.1388752206        2.8538211302  CLST         339          1.0000000000
      1016       339  TIP3  H1            7.4701268569        8.7273711423        3.5329614513  CLST         339          1.0000000000
      1017       339  TIP3  H2            7.2561718069        7.9123501054        2.1671390901  CLST         339          1.0000000000
      1018       340  TIP3  OH2          -4.6380286154      -11.6802563538      -11.1577849712  CLST         340          1.0000000000
      1019       340  TIP3  H1           -4.3491063491      -10.9832012263      -10.4897006680  CLST         340          1.0000000000
      1020       340  TIP3  H2           -4.2259411630      -12.4396724165      -10.8898325073  CLST         340          1.0000000000
      1021       341  TIP3  OH2          -6.7131043162        4.6892197597        9.4040965793  CLST         341          1.0000000000
      1022       341  TIP3  H1           -5.7622113605        4.5110744827        9.6069500654  CLST         341          1.0000000000
      1023       341  TIP3  H2           -7.0193361411        3.8038814368        9.5478991464  CLST         341          1.0000000000
      1024       342  TIP3  OH2          -4.4112415171      -11.0013466245       13.8043065229  CLST         342          1.0000000000
      1025       342  TIP3  H1           -5.1747215578      -10.8216022127       13.2263683272  CLST         342          1.0000000000
      1026       342  TIP3  H2           -4.4315751452      -11.2153460504       14.6020661751  CLST         342          1.0000000000
      1027       343  TIP3  OH2           1.3597950640       -9.0278814172       -9.8742909311  CLST         343          1.0000000000
      1028       343  TIP3  H1            1.4621975940       -8.1554546331      -10.3177507759  CLST         343          1.0000000000
      1029       343  TIP3  H2            1.3562387946       -9.6518087303      -10.5932457579  CLST         343          1.0000000000
      1030       344  TIP3  OH2           5.5018088048       -3.9676524209        6.3541468373  CLST         344          1.0000000000
      1031       344  TIP3  H1            4.8149562093       -4.5014562507        6.8557519189  CLST         344          1.0000000000
      1032       344  TIP3  H2            6.0885395444       -4.6600669625        5.9317772551  CLST         344          1.0000000000
      1033       345  TIP3  OH2          13.1020589145        7.1202447037        8.9157137838  CLST         345          1.0000000000
      1034       345  TIP3  H1           12.3969683984        6.5057442489        8.7063043577  CLST         345          1.0000000000
      1035       345  TIP3  H2           12.6401374266        7.3306591103        9.8386664092  CLST         345          1.0000000000
      1036       346  TIP3  OH2           9.4329121814        9.4693267463        0.9333267586  CLST         346          1.0000000000
      1037       346  TIP3  H1            9.7373985768       10.2135807138        1.5276943775  CLST         346          1.0000000000
      1038       346  TIP3  H2            8.8137374127        8.9458787336        1.5297667841  CLST         346          1.0000000000
      1039       347  TIP3  OH2          -5.0677132177        3.0544193200       -9.6397127703  CLST         347          1.0000000000
      1040       347  TIP3  H1           -5.7568301455        3.1149117807       -8.8966503051  CLST         347          1.0000000000
      1041       347  TIP3  H2           -4.3276545024        2.9594404159       -9.0140358447  CLST         347          1.0000000000
      1042       348  TIP3  OH2          -1.2465078928        6.1184894867        5.8454531588  CLST         348          1.0000000000
      1043       348  TIP3  H1           -1.3666962211        5.2344859546        5.3690061532  CLST         348          1.0000000000
      1044       348  TIP3  H2           -0.4878898241        6.4261025498        5.2485057669  CLST         348          1.0000000000
      1045       349  TIP3  OH2          -4.1554807677        5.3438086297       -2.5848998923  CLST         349          1.0000000000
      1046       349  TIP3  H1           -3.9215670393        4.7581565684       -3.3063509793  CLST         349          1.0000000000
      1047       349  TIP3  H2           -3.4506088916        6.0638042016       -2.6960597108  CLST         349          1.0000000000
      1048       350  TIP3  OH2          -2.6027117894        8.9003572628        5.1347320149  CLST         350          1.0000000000
      1049       350  TIP3  H1           -3.1756603927        8.6204013976        4.3146672655  CLST         350          1.0000000000
      1050       350  TIP3  H2           -2.5465796077        8.0174046634        5.5297582601  CLST         350          1.0000000000
      1051       351  TIP3  OH2           4.7981991862       -7.5867859401       -7.7106913534  CLST         351          1.0000000000
      1052       351  TIP3  H1            4.2130206794       -8.3614905841       -7.6452534044  CLST         351          1.0000000000
      1053       351  TIP3  H2            4.7503469223       -7.5268657319       -8.7221397924  CLST         351          1.0000000000
      1054       352  TIP3  OH2         -10.4503440725      -11.0671334763        1.7459328564  CLST         352          1.0000000000
      1055       352  TIP3  H1           -9.5902962709      -10.8513758207        1.4268652141  CLST         352          1.0000000000
      1056       352  TIP3  H2          -10.9642442675      -10.3919685211        1.2223994684  CLST         352          1.0000000000
      1057       353  TIP3  OH2          10.7703000513       -8.1716214465       -8.5812787909  CLST         353          1.0000000000
      1058       353  TIP3  H1            9.9055702322       -8.4753394160       -8.8943280431  CLST         353          1.0000000000
      1059       353  TIP3  H2           10.8092417298       -8.4774877187       -7.6660675313  CLST         353          1.0000000000
      1060       354  TIP3  OH2           6.7983899676      -10.6935194106        4.1969463701  CLST         354          1.0000000000
      1061       354  TIP3  H1            7.5977427742      -10.9459927616        4.7697739281  CLST         354          1.0000000000
      1062       354  TIP3  H2            6.6321092317       -9.9276672329        4.8525994644  CLST         354          1.0000000000
      1063       355  TIP3  OH2          -7.3009962898        8.9507865674       -8.7376270726  CLST         355          1.0000000000
      1064       355  TIP3  H1           -6.8232275065        9.7919697574       -8.6895326574  CLST         355          1.0000000000
      1065       355  TIP3  H2           -8.2092830856        9.3457738500       -8.8753401841  CLST         355          1.0000000000
      1066       356  TIP3  OH2          12.4018041822        0.9379292860       -2.0128663000  CLST         356          1.0000000000
      1067       356  TIP3  H1           11.4404936327        0.7836325587       -2.0716536245  CLST         356          1.0000000000
      1068       356  TIP3  H2           12.6481982997        0.8299798933       -1.0681633460  CLST         356          1.0000000000
      1069       357  TIP3  OH2          -0.6919081546       -0.5417876061       -1.9652786499  CLST         357          1.0000000000
      1070       357  TIP3  H1            0.1510913968       -1.0731706635       -2.0889937334  CLST         357          1.0000000000
      1071       357  TIP3  H2           -0.7880415939       -0.3579782595       -2.9221169685  CLST         357          1.0000000000
      1072       358  TIP3  OH2          -5.6520033795        7.0590317126       -7.5339378123  CLST         358          1.0000000000
      1073       358  TIP3  H1           -6.1380677516        7.7827816448       -8.0387900132  CLST         358          1.0000000000
      1074       358  TIP3  H2           -6.4746409110        6.7300243040       -7.0625714470  CLST         358          1.0000000000
      1075       359  TIP3  OH2          -5.1271329728       12.2855891615        6.0968686147  CLST         359          1.0000000000
      1076       359  TIP3  H1           -5.4359744609       12.2556351791        5.1834844593  CLST         359          1.0000000000
      1077       359  TIP3  H2           -4.1468683963       12.2307972985        5.9598918107  CLST         359          1.0000000000
      1078       360  TIP3  OH2          -6.9581618768        5.7984103940       -3.2931185678  CLST         360          1.0000000000
      1079       360  TIP3  H1           -7.1838469442        6.3053331792       -2.4788393228  CLST         360          1.0000000000
      1080       360  TIP3  H2           -5.9746350732        5.6350560563       -3.1322397757  CLST         360          1.0000000000
      1081       361  TIP3  OH2          -1.6106356635       -1.0760842997       10.0384443320  CLST         361          1.0000000000
      1082       361  TIP3  H1           -1.7041646890       -0.4455162842       10.7586485069  CLST         361          1.0000000000
      1083       361  TIP3  H2           -1.7151987623       -1.9575576082       10.5625929377  CLST         361          1.0000000000
      1084       362  TIP3  OH2         -10.5799384551        2.7454259535        0.5591193377  CLST         362          1.0000000000
      1085       362  TIP3  H1          -10.5769541111        3.4360502290       -0.1694917196  CLST         362          1.0000000000
      1086       362  TIP3  H2          -11.1208305494        2.1390656446        0.0205584171  CLST         362          1.0000000000
      1087       363  TIP3  OH2          10.5352926634        2.4995598281       10.2104186531  CLST         363          1.0000000000
      1088       363  TIP3  H1           10.9092457857        1.5646556966       10.1248531355  CLST         363          1.0000000000
      1089       363  TIP3  H2           11.0766623181        3.1647665820       10.5354031544  CLST         363          1.0000000000
      1090       364  TIP3  OH2           7.6296766149       -5.6087992790       -6.2651146882  CLST         364          1.0000000000
      1091       364  TIP3  H1            6.8800431385       -4.9773378297       -6.4859488015  CLST         364          1.0000000000
      1092       364  TIP3  H2            8.0938114679       -5.6183356520       -7.1289244176  CLST         364          1.0000000000
      1093       365  TIP3  OH2          -6.1153432920       -6.7233017561        2.7396850166  CLST         365          1.0000000000
      1094       365  TIP3  H1           -6.6796114018       -5.9363990955        2.6556008435  CLST         365          1.0000000000
      1095       365  TIP3  H2           -6.9377642691       -7.3031711707        3.0265640708  CLST         365          1.0000000000
      1096       366  TIP3  OH2           1.9537654272       -1.4991941233       -3.0415941568  CLST         366          1.0000000000
      1097       366  TIP3  H1            2.9073663976       -1.4482735356       -2.7615558804  CLST         366          1.0000000000
      1098       366  TIP3  H2            2.1636238060       -1.0175568918       -3.8995124360  CLST         366          1.0000000000
      1099       367  TIP3  OH2          -5.1282856372       11.7469106185       12.2654826651  CLST         367          1.0000000000
      1100       367  TIP3  H1           -5.8048859128       12.1158490395       11.6736378834  CLST         367          1.0000000000
      1101       367  TIP3  H2           -5.3793497868       12.2951035785       13.0192008240  CLST         367          1.0000000000
      1102       368  TIP3  OH2          -2.7008123830        6.5136180476        1.1183438932  CLST         368          1.0000000000
      1103       368  TIP3  H1           -2.8989616102        7.2212807331        0.4378680949  CLST         368          1.0000000000
      1104       368  TIP3  H2           -3.1388443327        6.9713561106        1.9026895470  CLST         368          1.0000000000
      1105       369  TIP3  OH2         -11.6187939707       -1.8338573644       -6.5118881140  CLST         369          1.0000000000
      1106       369  TIP3  H1          -10.7479922622       -2.2794194630       -6.5367356911  CLST         369          1.0000000000
      1107       369  TIP3  H2          -11.8805464586       -2.1624124143       -7.4246408937  CLST         369          1.0000000000
      1108       370  TIP3  OH2         -11.9279417519        5.5089492783      -11.7368625860  CLST         370          1.0000000000
      1109       370  TIP3  H1          -12.2355576605        4.8573891921      -12.5039243924  CLST         370          1.0000000000
      1110       370  TIP3  H2          -12.7108556612        5.6138348302      -11.4265872385  CLST         370          1.0000000000
      1111       371  TIP3  OH2           2.1524523316        7.7898404521        5.9036411954  CLST         371          1.0000000000
      1112       371  TIP3  H1            2.1513747214        7.5756393064        6.8228173696  CLST         371          1.0000000000
      1113       371  TIP3  H2            3.0704612154        7.7721924290        5.7097450244  CLST         371          1.0000000000
      1114       372  TIP3  OH2           8.0949743582       -7.4383852972        9.0818079645  CLST         372          1.0000000000
      1115       372  TIP3  H1            8.8633266370       -7.6052497328        8.5335446439  CLST         372          1.0000000000
      1116       372  TIP3  H2            8.6010866504       -7.6570028156        9.9199620770  CLST         372          1.0000000000
      1117       373  TIP3  OH2          11.1385815754       -0.2806374498        6.6176256476  CLST         373          1.0000000000
      1118       373  TIP3  H1           11.3515344894        0.4316567131        5.9486475411  CLST         373          1.0000000000
      1119       373  TIP3  H2           10.3788183876       -0.5563325488        6.0834873392  CLST         373          1.0000000000
      1120       374  TIP3  OH2          -9.2939602029        4.6436056685      -12.4165352739  CLST         374          1.0000000000
      1121       374  TIP3  H1           -9.6783277285        5.2237225764      -13.0786405899  CLST         374          1.0000000000
      1122       374  TIP3  H2           -9.9097073491        4.9534054088      -11.7216844714  CLST         374          1.0000000000
      1123       375  TIP3  OH2           9.7275125408       -5.4815652954       -2.7995515321  CLST         375          1.0000000000
      1124       375  TIP3  H1           10.0927661443       -5.0765934431       -3.6162614179  CLST         375          1.0000000000
      1125       375  TIP3  H2           10.1448866087       -6.3924144727       -2.7855407023  CLST         375          1.0000000000
      1126       376  TIP3  OH2          -2.1882151518      -11.1620622426       12.0494930804  CLST         376          1.0000000000
      1127       376  TIP3  H1           -2.8300425378      -10.8233599302       12.7837805620  CLST         376          1.0000000000
      1128       376  TIP3  H2           -2.9195223067      -11.3514882363       11.4295996732  CLST         376          1.0000000000
      1129       377  TIP3  OH2         -10.0825694810       12.6886845601       10.2558191526  CLST         377          1.0000000000
      1130       377  TIP3  H1           -9.1549766687       12.6145812825       10.6724997950  CLST         377          1.0000000000
      1131       377  TIP3  H2           -9.8065635102       12.8186590606        9.3096962136  CLST         377          1.0000000000
      1132       378  TIP3  OH2           2.0576710592       -8.0350893007        7.3296986972  CLST         378          1.0000000000
      1133       378  TIP3  H1            2.0095919585       -7.1499212011        6.9539016465  CLST         378          1.0000000000
      1134       378  TIP3  H2            1.3507895235       -8.1471258928        7.9685098435  CLST         378          1.0000000000
      1135       379  TIP3  OH2          -9.3336472761        9.3009514941       -1.1152764652  CLST         379          1.0000000000
      1136       379  TIP3  H1           -8.6848329771        9.4765795744       -0.4030592482  CLST         379          1.0000000000
      1137       379  TIP3  H2           -9.5175910888       10.1943241335       -1.4219734299  CLST         379          1.0000000000
      1138       380  TIP3  OH2           2.9861930287       -4.1741204502      -11.1851133699  CLST         380          1.0000000000
      1139       380  TIP3  H1            2.4236959371       -3.4944781185      -11.7110480436  CLST         380          1.0000000000
      1140       380  TIP3  H2            3.2662856378       -4.7225167477      -11.9470098019  CLST         380          1.0000000000
      1141       381  TIP3  OH2          10.1626099885        4.2691796888        3.3211253063  CLST         381          1.0000000000
      1142       381  TIP3  H1            9.3353698121        4.6332963758        3.6684805390  CLST         381          1.0000000000
      1143       381  TIP3  H2           10.7869979833        5.0374780566        3.5031433380  CLST         381          1.0000000000
      1144       382  TIP3  OH2           1.8984573648       -5.4512743174        5.8258768761  CLST         382          1.0000000000
      1145       382  TIP3  H1            2.3494368789       -4.9666325449        6.5630190524  CLST         382          1.0000000000
      1146       382  TIP3  H2            2.7278540186       -5.9124559361        5.4751785622  CLST         382          1.0000000000
      1147       383  TIP3  OH2          10.1957222313        8.8972751899        4.8189038753  CLST         383          1.0000000000
      1148       383  TIP3  H1            9.5604467575        9.1087027945        4.0969057489  CLST         383          1.0000000000
      1149       383  TIP3  H2           10.4012431493        9.8609756517        4.9808297226  CLST         383          1.0000000000
      1150       384  TIP3  OH2          -3.3181965698       -1.7885564044       -8.4108410948  CLST         384          1.0000000000
      1151       384  TIP3  H1           -2.9584177399       -2.7109953660       -8.4451671894  CLST         384          1.0000000000
      1152       384  TIP3  H2           -2.6206654715       -1.4368015839       -7.7685363379  CLST         384          1.0000000000
      1153       385  TIP3  OH2           3.6340305434      -11.7835264173       -0.6607814836  CLST         385          1.0000000000
      1154       385  TIP3  H1            4.4903061007      -12.3344752834       -0.6570894574  CLST         385          1.0000000000
      1155       385  TIP3  H2            3.7815203707      -11.1252535799        0.0882672704  CLST         385          1.0000000000
      1156       386  TIP3  OH2          -4.2976790549        9.3689782667       -6.1792549055  CLST         386          1.0000000000
      1157       386  TIP3  H1           -4.7627541491        8.5130452653       -6.4900950191  CLST         386          1.0000000000
      1158       386  TIP3  H2           -4.2663980063        9.7133346388       -7.1479798866  CLST         386          1.0000000000
      1159       387  TIP3  OH2          -9.8497821188       10.5774660247        2.8055873781  CLST         387          1.0000000000
      1160       387  TIP3  H1          -10.6910960941       10.5091751481        2.2401250744  CLST         387          1.0000000000
      1161       387  TIP3  H2           -9.1942483926       10.4271775792        2.0998818333  CLST         387          1.0000000000
      1162       388  TIP3  OH2          -1.7848931768      -12.3626223732        5.8861336064  CLST         388          1.0000000000
      1163       388  TIP3  H1           -2.0872376719      -11.5025783429        5.5446836680  CLST         388          1.0000000000
      1164       388  TIP3  H2           -1.8440925375      -12.1149614293        6.8441557388  CLST         388          1.0000000000
      1165       389  TIP3  OH2          -8.1294219146        3.4534788481       -3.4979648863  CLST         389          1.0000000000
      1166       389  TIP3  H1           -7.8129687587        4.3823813851       -3.2860684789  CLST         389          1.0000000000
      1167       389  TIP3  H2           -8.9763774920        3.7602380659       -3.9305281913  CLST         389          1.0000000000
      1168       390  TIP3  OH2          -5.9085371119       -3.7881391662        4.5569861104  CLST         390          1.0000000000
      1169       390  TIP3  H1           -5.3025410441       -2.9246579041        4.6453903453  CLST         390          1.0000000000
      1170       390  TIP3  H2           -5.4876517397       -4.1221915473        3.8695803759  CLST         390          1.0000000000
      1171       391  TIP3  OH2          -8.6162956154       -8.8439132857       -6.1611826670  CLST         391          1.0000000000
      1172       391  TIP3  H1           -9.2634118670       -9.5340020750       -6.4461259592  CLST         391          1.0000000000
      1173       391  TIP3  H2           -7.9288608528       -9.3916802369       -5.7324849486  CLST         391          1.0000000000
      1174       392  TIP3  OH2           0.9804211741       -1.9640275440        9.8374940077  CLST         392          1.0000000000
      1175       392  TIP3  H1            0.3413489287       -2.6808557412       10.1054583596  CLST         392          1.0000000000
      1176       392  TIP3  H2            0.2918244026       -1.2520168830        9.7465832638  CLST         392          1.0000000000
      1177       393  TIP3  OH2          10.9632451534      -12.1417552113       -0.8037815093  CLST         393          1.0000000000
      1178       393  TIP3  H1           11.4193779222      -11.2318857279       -0.8439863010  CLST         393          1.0000000000
      1179       393  TIP3  H2           11.4686591726      -12.7483688089       -1.2246589510  CLST         393          1.0000000000
      1180       394  TIP3  OH2           0.4170438597       11.7563089954       -8.5209441033  CLST         394          1.0000000000
      1181       394  TIP3  H1            1.0325517813       12.1954551098       -7.9123371001  CLST         394          1.0000000000
      1182       394  TIP3  H2            0.4963939431       10.8582859796       -8.1384661248  CLST         394          1.0000000000
      1183       395  TIP3  OH2           6.9146145250        7.4819271049       -4.4723442836  CLST         395          1.0000000000
      1184       395  TIP3  H1            6.0343893505        8.0171249446       -4.5850147938  CLST         395          1.0000000000
      1185       395  TIP3  H2            6.8328256777        6.9424229908       -5.3203298126  CLST         395          1.0000000000
      1186       396  TIP3  OH2          -1.1476950978       -9.9816814807       -9.1337671240  CLST         396          1.0000000000
      1187       396  TIP3  H1           -1.1425325580       -9.8336742779       -8.1265155844  CLST         396          1.0000000000
      1188       396  TIP3  H2           -0.2786800375       -9.6157771525       -9.3330892972  CLST         396          1.0000000000
      1189       397  TIP3  OH2          11.3525058557        7.1766181834       -8.9536280785  CLST         397          1.0000000000
      1190       397  TIP3  H1           11.8500649956        6.7551291976       -8.2143468882  CLST         397          1.0000000000
      1191       397  TIP3  H2           10.4503288888        7.2128020250       -8.4890484860  CLST         397          1.0000000000
      1192       398  TIP3  OH2          10.6252174054        7.6961382882       -4.8743926158  CLST         398          1.0000000000
      1193       398  TIP3  H1           10.1192535070        8.1217413512       -4.1120905915  CLST         398          1.0000000000
      1194       398  TIP3  H2           11.3522099063        7.3454435630       -4.3070951590  CLST         398          1.0000000000
      1195       399  TIP3  OH2           1.8929884061       11.2033639014        4.7473160407  CLST         399          1.0000000000
      1196       399  TIP3  H1            1.0856235690       10.7652679420        5.1079244682  CLST         399          1.0000000000
      1197       399  TIP3  H2            2.3328158524       11.1400268902        5.6461012590  CLST         399          1.0000000000
      1198       400  TIP3  OH2           3.9927700398       -2.9493306149       -4.8639490543  CLST         400          1.0000000000
      1199       400  TIP3  H1            4.6611224650       -2.7104573157       -4.1877131867  CLST         400          1.0000000000
      1200       400  TIP3  H2            4.4753032647       -3.5543768044       -5.4629719804  CLST         400          1.0000000000
      1201       401  TIP3  OH2         -14.5938214016        9.9383104386        5.5393810941  CLST         401          1.0000000000
      1202       401  TIP3  H1          -14.1276337937       10.0900284991        6.3970240219  CLST         401          1.0000000000
      1203       401  TIP3  H2          -15.5300084263        9.8201683696        5.8286564773  CLST         401          1.0000000000
      1204       402  TIP3  OH2           1.8330575229       -1.6518879242       12.9130306122  CLST         402          1.0000000000
      1205       402  TIP3  H1            1.5449860424       -2.6156450860       13.0441099038  CLST         402          1.0000000000
      1206       402  TIP3  H2            1.7344495171       -1.7708971837       11.9080845124  CLST         402          1.0000000000
      1207       403  TIP3  OH2          -2.0392227079       -6.9886929638       -0.5870176742  CLST         403          1.0000000000
      1208       403  TIP3  H1           -1.9558457749       -6.6660604907       -1.9801828716  CLST         403          1.0000000000
      1209       403  TIP3  H2           -1.8925538671       -8.4888347179       -1.1126149221  CLST         403          1.0000000000
      1210       404  TIP3  OH2          -4.8828295176       -2.5019568872        9.1668246127  CLST         404          1.0000000000
      1211       404  TIP3  H1           -5.2672689885       -2.6817588421       10.0276507500  CLST         404          1.0000000000
      1212       404  TIP3  H2           -5.2517527842       -3.3356351632        8.6781945772  CLST         404          1.0000000000
      1213       405  TIP3  OH2         -11.9898798482        7.2839684769       11.3504125237  CLST         405          1.0000000000
      1214       405  TIP3  H1          -11.6984336718        6.3976057083       11.0295243928  CLST         405          1.0000000000
      1215       405  TIP3  H2          -12.8966886457        7.1582623081       11.0938018560  CLST         405          1.0000000000
      1216       406  TIP3  OH2           1.0806546645        7.7979886419      -12.2608520779  CLST         406          1.0000000000
      1217       406  TIP3  H1            1.1950699913        8.7439338134      -12.4749754803  CLST         406          1.0000000000
      1218       406  TIP3  H2            1.3359711300        7.6937272375      -11.3304833307  CLST         406          1.0000000000
      1219       407  TIP3  OH2          10.4669019812      -13.3178710399        5.2492769445  CLST         407          1.0000000000
      1220       407  TIP3  H1           10.7847609315      -13.5142950826        4.3578012986  CLST         407          1.0000000000
      1221       407  TIP3  H2           11.1703343030      -12.6328450470        5.3962308752  CLST         407          1.0000000000
      1222       408  TIP3  OH2          -2.9971849925      -11.6675041211        2.0819706848  CLST         408          1.0000000000
      1223       408  TIP3  H1           -2.2267722304      -11.0238160237        2.0105194511  CLST         408          1.0000000000
      1224       408  TIP3  H2           -2.4264598627      -12.4590742798        2.2945461972  CLST         408          1.0000000000
      1225       409  TIP3  OH2           1.0881120254       -9.7028139250        9.6414327618  CLST         409          1.0000000000
      1226       409  TIP3  H1            0.6873508086       -9.5136804340       10.5314868540  CLST         409          1.0000000000
      1227       409  TIP3  H2            1.3960475740      -10.6355760865        9.7942084079  CLST         409          1.0000000000
      1228       410  TIP3  OH2           9.7554511726       -7.0311843701       -5.2024416122  CLST         410          1.0000000000
      1229       410  TIP3  H1            8.9989142299       -6.5815879649       -5.6843193686  CLST         410          1.0000000000
      1230       410  TIP3  H2           10.3445897823       -6.2375242283       -5.2616272922  CLST         410          1.0000000000
      1231       411  TIP3  OH2         -10.0369206485       -2.3422865051       -1.2982818188  CLST         411          1.0000000000
      1232       411  TIP3  H1           -9.2623394672       -2.0148190208       -0.8512319729  CLST         411          1.0000000000
      1233       411  TIP3  H2           -9.6711813325       -2.6626721328       -2.1483480051  CLST         411          1.0000000000
      1234       412  TIP3  OH2           6.7981057868      -10.5624407427      -11.9993971291  CLST         412          1.0000000000
      1235       412  TIP3  H1            6.2042210222      -10.8052447522      -11.2377376882  CLST         412          1.0000000000
      1236       412  TIP3  H2            7.6054695987      -11.1639187080      -11.8699896577  CLST         412          1.0000000000
      1237       413  TIP3  OH2           7.0227080910       12.9510557190        0.2397302657  CLST         413          1.0000000000
      1238       413  TIP3  H1            7.6242223907       12.4624780197       -0.3394565222  CLST         413          1.0000000000
      1239       413  TIP3  H2            7.6842930783       13.5435048035        0.6391480914  CLST         413          1.0000000000
      1240       414  TIP3  OH2           1.4928381659       -2.5206712154      -12.4776813971  CLST         414          1.0000000000
      1241       414  TIP3  H1            0.6145296937       -2.1388207692      -12.3508799422  CLST         414          1.0000000000
      1242       414  TIP3  H2            1.6120244554       -2.7598231401      -13.3706153078  CLST         414          1.0000000000
      1243       415  TIP3  OH2           4.1099799652        5.2568732092       -8.1495449127  CLST         415          1.0000000000
      1244       415  TIP3  H1            3.5108164296        4.4096910210       -8.0388217547  CLST         415          1.0000000000
      1245       415  TIP3  H2            4.6898837431        4.7257578417       -8.8963835639  CLST         415          1.0000000000
      1246       416  TIP3  OH2           5.6301991916       12.4490211896       -7.7396152142  CLST         416          1.0000000000
      1247       416  TIP3  H1            5.2811520803       13.1739833258       -8.2317706149  CLST         416          1.0000000000
      1248       416  TIP3  H2            6.4481747538       12.1757818363       -8.2815935277  CLST         416          1.0000000000
      1249       417  TIP3  OH2          12.7328403312      -11.1828113428        2.6740932721  CLST         417          1.0000000000
      1250       417  TIP3  H1           12.1093655550      -11.7818507671        2.2290095947  CLST         417          1.0000000000
      1251       417  TIP3  H2           12.4363508752      -10.3639066522        2.1544345665  CLST         417          1.0000000000
      1252       418  TIP3  OH2          -9.2900116548       -1.4970333877        8.2548356047  CLST         418          1.0000000000
      1253       418  TIP3  H1           -8.7351378336       -1.0369870675        7.5982702107  CLST         418          1.0000000000
      1254       418  TIP3  H2           -9.6001602492       -0.8495158234        8.8909925569  CLST         418          1.0000000000
      1255       419  TIP3  OH2          14.0699582434        0.4454142994       -6.2202993272  CLST         419          1.0000000000
      1256       419  TIP3  H1           14.6720816658        1.0006658859       -5.2507774472  CLST         419          1.0000000000
      1257       419  TIP3  H2           15.0826126419        0.8790415019       -6.0394284835  CLST         419          1.0000000000
      1258       420  TIP3  OH2          -8.1649565059       -8.2153017415        3.5154999037  CLST         420          1.0000000000
      1259       420  TIP3  H1           -8.9836393091       -7.9653064267        3.0066299491  CLST         420          1.0000000000
      1260       420  TIP3  H2           -8.2668376070       -9.1447417794        3.6855781642  CLST         420          1.0000000000
      1261       421  TIP3  OH2           3.4713097361       -6.2770383866      -13.4682879468  CLST         421          1.0000000000
      1262       421  TIP3  H1            4.3274088772       -6.7295000327      -13.2960185142  CLST         421          1.0000000000
      1263       421  TIP3  H2            2.9481413384       -7.1380021186      -13.3636239965  CLST         421          1.0000000000
      1264       422  TIP3  OH2          -1.8564129590       -9.3112637334       -1.7776506488  CLST         422          1.0000000000
      1265       422  TIP3  H1           -1.2329106385      -10.1200065601       -1.7904186084  CLST         422          1.0000000000
      1266       422  TIP3  H2           -2.6309281844       -9.9905223653       -1.6868998554  CLST         422          1.0000000000
      1267       423  TIP3  OH2           1.7715191084        4.8534704941       -4.0259125105  CLST         423          1.0000000000
      1268       423  TIP3  H1            2.4678696970        5.3947819830       -4.4543496814  CLST         423          1.0000000000
      1269       423  TIP3  H2            2.1541624147        4.7582454674       -3.1146148673  CLST         423          1.0000000000
      1270       424  TIP3  OH2          -9.0578218600        4.3222936604        4.4253294793  CLST         424          1.0000000000
      1271       424  TIP3  H1           -8.9497505976        3.7527822947        3.6329202063  CLST         424          1.0000000000
      1272       424  TIP3  H2           -8.6204278179        5.1334982340        4.1171107911  CLST         424          1.0000000000
      1273       425  TIP3  OH2           8.1783796598      -12.6616758913        8.3273346607  CLST         425          1.0000000000
      1274       425  TIP3  H1            8.4013628816      -12.0910936913        7.5322256157  CLST         425          1.0000000000
      1275       425  TIP3  H2            7.6309513831      -11.9722975426        8.7327507222  CLST         425          1.0000000000
      1276       426  TIP3  OH2           8.1992137492        2.3383629491        8.2496848492  CLST         426          1.0000000000
      1277       426  TIP3  H1            8.9345208144        2.2493792266        8.9086964092  CLST         426          1.0000000000
      1278       426  TIP3  H2            8.3211676098        3.3122515726        7.9487206887  CLST         426          1.0000000000
      1279       427  TIP3  OH2          11.4883755365        7.5743835260       10.8322869278  CLST         427          1.0000000000
      1280       427  TIP3  H1           11.4494407470        8.0418355123       11.7000953216  CLST         427          1.0000000000
      1281       427  TIP3  H2           10.7111797685        6.9865639698       10.8903283777  CLST         427          1.0000000000
      1282       428  TIP3  OH2          12.5253809528        7.5856963996        1.1048696454  CLST         428          1.0000000000
      1283       428  TIP3  H1           12.3129115909        7.9039204147        0.1254697070  CLST         428          1.0000000000
      1284       428  TIP3  H2           13.4015065835        7.8862998454        1.1650285907  CLST         428          1.0000000000
      1285       429  TIP3  OH2          11.8566045680       -9.8154249127       -0.7832029602  CLST         429          1.0000000000
      1286       429  TIP3  H1           12.1301912015       -9.2921291329       -0.0250702053  CLST         429          1.0000000000
      1287       429  TIP3  H2           11.4528399498       -9.1647018955       -1.3102229893  CLST         429          1.0000000000
      1288       430  TIP3  OH2           9.6972581746       -6.8320736580        3.7364425065  CLST         430          1.0000000000
      1289       430  TIP3  H1            9.5525532486       -7.1446019206        2.7875292307  CLST         430          1.0000000000
      1290       430  TIP3  H2           10.6893632534       -6.7888127173        3.6572011185  CLST         430          1.0000000000
      1291       431  TIP3  OH2         -12.8741768882        9.4565367910       -2.3766975671  CLST         431          1.0000000000
      1292       431  TIP3  H1          -13.5925650138        9.9244283182       -2.8234767436  CLST         431          1.0000000000
      1293       431  TIP3  H2          -13.4188737922        9.2657067662       -1.5058233275  CLST         431          1.0000000000
      1294       432  TIP3  OH2           5.5445873320        8.5029351503       -9.9518385096  CLST         432          1.0000000000
      1295       432  TIP3  H1            5.9758085986        8.4380750930       -9.0962329271  CLST         432          1.0000000000
      1296       432  TIP3  H2            4.8669008048        9.1952698089       -9.6227314530  CLST         432          1.0000000000
      1297       433  TIP3  OH2          -0.8124354899        8.1406150084        7.7323690274  CLST         433          1.0000000000
      1298       433  TIP3  H1           -1.6842531001        8.5885218243        7.7906319753  CLST         433          1.0000000000
      1299       433  TIP3  H2           -1.0979695383        7.2722352445        7.3586548342  CLST         433          1.0000000000
      1300       434  TIP3  OH2          -7.4256742064        0.6854297515        3.7120560489  CLST         434          1.0000000000
      1301       434  TIP3  H1           -7.8070213214        1.3791865568        3.1100045477  CLST         434          1.0000000000
      1302       434  TIP3  H2           -8.1448483785       -0.0036243575        3.5873087091  CLST         434          1.0000000000
      1303       435  TIP3  OH2           9.8945410708       -0.4492351157       -7.3059776904  CLST         435          1.0000000000
      1304       435  TIP3  H1            9.9107282290       -0.5359183390       -6.3298341801  CLST         435          1.0000000000
      1305       435  TIP3  H2            9.7546671350        0.4396418890       -7.5013788980  CLST         435          1.0000000000
      1306       436  TIP3  OH2           3.7311913606       10.5394940874       -9.0441034080  CLST         436          1.0000000000
      1307       436  TIP3  H1            4.1022025430       11.2549657231       -8.4756348753  CLST         436          1.0000000000
      1308       436  TIP3  H2            2.8224164548       10.4925294364       -8.6721612601  CLST         436          1.0000000000
      1309       437  TIP3  OH2          -8.3579070044       -0.7813984830       -8.0217301445  CLST         437          1.0000000000
      1310       437  TIP3  H1           -8.6767074441       -0.3823480139       -8.8744992937  CLST         437          1.0000000000
      1311       437  TIP3  H2           -7.3648785732       -0.6279512261       -8.0710207660  CLST         437          1.0000000000
      1312       438  TIP3  OH2          -3.4288611754        5.4747709155       -8.2024133881  CLST         438          1.0000000000
      1313       438  TIP3  H1           -4.1433809029        6.1302742118       -7.8263168128  CLST         438          1.0000000000
      1314       438  TIP3  H2           -3.6687346395        5.7510956482       -9.1828474070  CLST         438          1.0000000000
      1315       439  TIP3  OH2          14.2035349097        1.7816800118       -3.9120559995  CLST         439          1.0000000000
      1316       439  TIP3  H1           13.6245021771        2.7141602327       -3.9637366652  CLST         439          1.0000000000
      1317       439  TIP3  H2           13.7386022025        1.3252196762       -3.1544008928  CLST         439          1.0000000000
      1318       440  TIP3  OH2           1.1684876379      -13.0284017655      -11.1589951654  CLST         440          1.0000000000
      1319       440  TIP3  H1            0.2600673231      -12.7798479089      -11.2618988480  CLST         440          1.0000000000
      1320       440  TIP3  H2            1.1299643178      -13.7595217072      -11.7319099756  CLST         440          1.0000000000
      1321       441  TIP3  OH2          -1.4522946675       -4.3722825151        3.0323776409  CLST         441          1.0000000000
      1322       441  TIP3  H1           -1.5155861360       -3.4560394759        3.2257819206  CLST         441          1.0000000000
      1323       441  TIP3  H2           -1.1469106736       -4.7403355978        3.9165839480  CLST         441          1.0000000000
      1324       442  TIP3  OH2           3.2942673110       -9.7580696360       -7.9303038782  CLST         442          1.0000000000
      1325       442  TIP3  H1            3.7048236857      -10.2245089281       -8.7104674737  CLST         442          1.0000000000
      1326       442  TIP3  H2            2.4507712845       -9.4740430050       -8.3855433687  CLST         442          1.0000000000
      1327       443  TIP3  OH2           1.2004874613       10.5584712396      -12.9495101586  CLST         443          1.0000000000
      1328       443  TIP3  H1            1.4959595071       11.0543234676      -12.0682335994  CLST         443          1.0000000000
      1329       443  TIP3  H2            1.6788947518       11.1120824899      -13.5532151021  CLST         443          1.0000000000
      1330       444  TIP3  OH2          -8.0226326056        1.3745764203       -1.7420151017  CLST         444          1.0000000000
      1331       444  TIP3  H1           -7.9846766215        2.0168031890       -2.5114362643  CLST         444          1.0000000000
      1332       444  TIP3  H2           -7.4950140040        1.9641841256       -1.1118057550  CLST         444          1.0000000000
      1333       445  TIP3  OH2         -11.5082119244       -5.2128101936        6.1816954845  CLST         445          1.0000000000
      1334       445  TIP3  H1          -11.2880310468       -4.2458421290        5.9289061223  CLST         445          1.0000000000
      1335       445  TIP3  H2          -11.4408582103       -5.0776674223        7.1321204832  CLST         445          1.0000000000
      1336       446  TIP3  OH2          -2.9575959834        4.7065325467       -5.2918054466  CLST         446          1.0000000000
      1337       446  TIP3  H1           -3.3546337793        4.9544195585       -6.1480436373  CLST         446          1.0000000000
      1338       446  TIP3  H2           -2.0555394488        5.1280091453       -5.2678007106  CLST         446          1.0000000000
      1339       447  TIP3  OH2          -4.9460694761      -12.5613148330       -3.7248534994  CLST         447          1.0000000000
      1340       447  TIP3  H1           -5.4397258304      -13.1620854840       -3.1451001657  CLST         447          1.0000000000
      1341       447  TIP3  H2           -4.4845231961      -12.1669575360       -2.9239703172  CLST         447          1.0000000000
      1342       448  TIP3  OH2           7.2121114804        9.6847064193        4.7412234177  CLST         448          1.0000000000
      1343       448  TIP3  H1            7.5192478709        9.7222142413        5.7110288335  CLST         448          1.0000000000
      1344       448  TIP3  H2            6.4327773827       10.2606000342        4.8846524180  CLST         448          1.0000000000
      1345       449  TIP3  OH2           4.3763494189        5.0272681170        8.4925803785  CLST         449          1.0000000000
      1346       449  TIP3  H1            5.0996392073        4.4679265753        8.9339998389  CLST         449          1.0000000000
      1347       449  TIP3  H2            3.9283922411        4.4239649972        7.9009572122  CLST         449          1.0000000000
      1348       450  TIP3  OH2          -4.0872363648        0.4011159176       -2.2067403403  CLST         450          1.0000000000
      1349       450  TIP3  H1           -3.7046056985        1.1003805545       -2.7582057893  CLST         450          1.0000000000
      1350       450  TIP3  H2           -3.2494826868       -0.0210222082       -1.8685123376  CLST         450          1.0000000000
      1351       451  TIP3  OH2          13.6267739735       -2.1670067449       -5.8181205323  CLST         451          1.0000000000
      1352       451  TIP3  H1           14.4736560992       -1.7803692062       -5.9085468455  CLST         451          1.0000000000
      1353       451  TIP3  H2           13.9834430939       -0.4049749453       -6.4712058001  CLST         451          1.0000000000
      1354       452  TIP3  OH2           8.4160681684        5.0194798293        7.8976329573  CLST         452          1.0000000000
      1355       452  TIP3  H1            7.6363381560        5.6125720109        7.7660297633  CLST         452          1.0000000000
      1356       452  TIP3  H2            9.0907159488        5.6590741232        7.4721362425  CLST         452          1.0000000000
      1357       453  TIP3  OH2           7.0101123585        2.6389638141       -6.0968858568  CLST         453          1.0000000000
      1358       453  TIP3  H1            6.1141349412        2.5010113674       -5.6738735438  CLST         453          1.0000000000
      1359       453  TIP3  H2            6.6560000306        2.5988920506       -7.0455886846  CLST         453          1.0000000000
      1360       454  TIP3  OH2           1.1329781459        5.5462946252        1.8809604436  CLST         454          1.0000000000
      1361       454  TIP3  H1            0.2856167971        5.1863329329        1.5755175778  CLST         454          1.0000000000
      1362       454  TIP3  H2            0.8443743596        6.2241566215        2.6020395204  CLST         454          1.0000000000
      1363       455  TIP3  OH2          -1.0751016447        0.8340497669      -10.4723392037  CLST         455          1.0000000000
      1364       455  TIP3  H1           -1.3910241074        1.0576023734       -9.5734271059  CLST         455          1.0000000000
      1365       455  TIP3  H2           -0.8497964847        1.7557392778      -10.7421803710  CLST         455          1.0000000000
      1366       456  TIP3  OH2           5.2964272016       11.3760639521        5.2090413097  CLST         456          1.0000000000
      1367       456  TIP3  H1            4.8452200168       11.8675831628        4.4901206211  CLST         456          1.0000000000
      1368       456  TIP3  H2            4.5730362813       11.1043997323        5.8191086113  CLST         456          1.0000000000
      1369       457  TIP3  OH2          -4.7989892170       -7.6805181546        4.9003033922  CLST         457          1.0000000000
      1370       457  TIP3  H1           -5.5107957645       -7.3895565581        5.4604926036  CLST         457          1.0000000000
      1371       457  TIP3  H2           -5.0479035697       -7.3489110712        3.9981957638  CLST         457          1.0000000000
      1372       458  TIP3  OH2           8.0371179274       -6.5999422422      -11.2975625032  CLST         458          1.0000000000
      1373       458  TIP3  H1            9.0196641184       -6.4511213730      -11.4146280569  CLST         458          1.0000000000
      1374       458  TIP3  H2            7.8746364268       -5.8027380739      -10.7476990484  CLST         458          1.0000000000
      1375       459  TIP3  OH2           6.5993067203       -9.9826040741       -7.8889399188  CLST         459          1.0000000000
      1376       459  TIP3  H1            6.1965037092       -9.0796417336       -7.7558585826  CLST         459          1.0000000000
      1377       459  TIP3  H2            7.3783426882       -9.5941258583       -8.4507534635  CLST         459          1.0000000000
      1378       460  TIP3  OH2           9.1911409109       -2.1677484248       -2.8781834922  CLST         460          1.0000000000
      1379       460  TIP3  H1            9.7368862708       -2.4519460406       -2.1147114117  CLST         460          1.0000000000
      1380       460  TIP3  H2            9.9157460626       -1.8671994541       -3.4629144343  CLST         460          1.0000000000
      1381       461  TIP3  OH2          -1.3749208413      -12.8258915713       -5.2726506131  CLST         461          1.0000000000
      1382       461  TIP3  H1           -0.7461015057      -13.2415696018       -5.8992801642  CLST         461          1.0000000000
      1383       461  TIP3  H2           -0.9370322986      -13.1349360946       -4.4109723704  CLST         461          1.0000000000
      1384       462  TIP3  OH2           0.0631183328        5.4049935310      -12.6485271773  CLST         462          1.0000000000
      1385       462  TIP3  H1            0.3777801298        6.3648677949      -12.4944177681  CLST         462          1.0000000000
      1386       462  TIP3  H2            0.8483943416        5.1733385041      -13.1872423876  CLST         462          1.0000000000
      1387       463  TIP3  OH2          -1.8459411112        1.7900907797       -7.8165996155  CLST         463          1.0000000000
      1388       463  TIP3  H1           -1.5644274153        0.9352324339       -7.3619485435  CLST         463          1.0000000000
      1389       463  TIP3  H2           -2.8362779837        1.8145422451       -7.6706064742  CLST         463          1.0000000000
      1390       464  TIP3  OH2          -6.5002246139        6.1848659145        4.3213125342  CLST         464          1.0000000000
      1391       464  TIP3  H1           -6.0963785551        5.6165988854        4.9385337759  CLST         464          1.0000000000
      1392       464  TIP3  H2           -6.8578299915        6.8624047371        4.9232885288  CLST         464          1.0000000000
      1393       465  TIP3  OH2          -4.5830147831      -12.5797684727        6.3689205998  CLST         465          1.0000000000
      1394       465  TIP3  H1           -3.6646445181      -13.0783825600        6.1109458038  CLST         465          1.0000000000
      1395       465  TIP3  H2           -4.1979213600      -11.6719758079        6.2050905275  CLST         465          1.0000000000
      1396       466  TIP3  OH2          -2.3792708123        9.2234809677       -4.2412340714  CLST         466          1.0000000000
      1397       466  TIP3  H1           -3.0200268785        9.3680620175       -5.0027032442  CLST         466          1.0000000000
      1398       466  TIP3  H2           -2.6199658169        9.8867733327       -3.5712908145  CLST         466          1.0000000000
      1399       467  TIP3  OH2           8.3872761446        6.0187518871        4.5683376922  CLST         467          1.0000000000
      1400       467  TIP3  H1            8.7320120361        6.4522637550        5.3774806232  CLST         467          1.0000000000
      1401       467  TIP3  H2            8.2765088598        6.7815763882        3.9790805557  CLST         467          1.0000000000
      1402       468  TIP3  OH2          -0.5988135218      -12.4200010963       10.4660137555  CLST         468          1.0000000000
      1403       468  TIP3  H1           -1.1937791012      -12.2433385294       11.2189853626  CLST         468          1.0000000000
      1404       468  TIP3  H2            0.2800672099      -12.6028313019       10.8456239881  CLST         468          1.0000000000
      1405       469  TIP3  OH2           5.4362991020        8.2246172276       14.1147368845  CLST         469          1.0000000000
      1406       469  TIP3  H1            6.1324615038        8.4053697866       13.4706099897  CLST         469          1.0000000000
      1407       469  TIP3  H2            4.7003143612        8.7713349401       13.9043109605  CLST         469          1.0000000000
      1408       470  TIP3  OH2         -11.1943493580       12.7328246900        0.6500813599  CLST         470          1.0000000000
      1409       470  TIP3  H1          -10.9762822452       12.4742509200       -0.2598171052  CLST         470          1.0000000000
      1410       470  TIP3  H2          -11.7695152304       12.0144104704        0.9518752878  CLST         470          1.0000000000
      1411       471  TIP3  OH2          -4.3395633648        9.6057736966       -8.9819918160  CLST         471          1.0000000000
      1412       471  TIP3  H1           -4.0048335721        8.7188470900       -9.1844868306  CLST         471          1.0000000000
      1413       471  TIP3  H2           -4.5233831937        9.9160096442       -9.9113609071  CLST         471          1.0000000000
      1414       472  TIP3  OH2         -11.8912518610        3.9144314834        2.7323306744  CLST         472          1.0000000000
      1415       472  TIP3  H1          -12.3940057564        3.0438826697        2.7371541128  CLST         472          1.0000000000
      1416       472  TIP3  H2          -11.1457874110        3.5736357509        2.1699124107  CLST         472          1.0000000000
      1417       473  TIP3  OH2           5.3092974371        0.7006246726       10.1156913346  CLST         473          1.0000000000
      1418       473  TIP3  H1            5.8804663546        1.4758278892        9.9100071880  CLST         473          1.0000000000
      1419       473  TIP3  H2            4.5870494376        1.2927928925       10.3917051899  CLST         473          1.0000000000
      1420       474  TIP3  OH2           1.2721929553        1.7842010109        1.4984361496  CLST         474          1.0000000000
      1421       474  TIP3  H1            0.2985687383        1.6939383593        1.3325449341  CLST         474          1.0000000000
      1422       474  TIP3  H2            1.5090446004        0.9023670150        1.1585403607  CLST         474          1.0000000000
      1423       475  TIP3  OH2           6.0975903636       -8.6257322897       11.9976847411  CLST         475          1.0000000000
      1424       475  TIP3  H1            7.0423946998       -8.3785002939       11.9896211990  CLST         475          1.0000000000
      1425       475  TIP3  H2            6.0643407069       -9.3218887208       11.3013371424  CLST         475          1.0000000000
      1426       476  TIP3  OH2         -11.5241163183       -8.8965555022        0.0335594974  CLST         476          1.0000000000
      1427       476  TIP3  H1          -11.9315728072       -8.0496451981       -0.3970322289  CLST         476          1.0000000000
      1428       476  TIP3  H2          -10.7857570706       -8.8123040948       -0.6039058322  CLST         476          1.0000000000
      1429       477  TIP3  OH2         -12.5601798761        3.7612691013      -13.5684075562  CLST         477          1.0000000000
      1430       477  TIP3  H1          -12.8828103634        2.8688655227      -13.2982569174  CLST         477          1.0000000000
      1431       477  TIP3  H2          -11.9850118127        3.4137062972      -14.2827760516  CLST         477          1.0000000000
      1432       478  TIP3  OH2          -3.9302349559        6.7107010185      -10.5659787139  CLST         478          1.0000000000
      1433       478  TIP3  H1           -4.3775177223        6.2482298180      -11.2642923318  CLST         478          1.0000000000
      1434       478  TIP3  H2           -3.3093789469        7.2729037762      -11.1330723496  CLST         478          1.0000000000
      1435       479  TIP3  OH2           7.7700735666       -1.5065813819       -8.4800883563  CLST         479          1.0000000000
      1436       479  TIP3  H1            8.6046100892       -1.0229225192       -8.3403051062  CLST         479          1.0000000000
      1437       479  TIP3  H2            7.3391504162       -1.2458784450       -7.6235791305  CLST         479          1.0000000000
      1438       480  TIP3  OH2          -6.1028419467        7.5611786641        0.0067033183  CLST         480          1.0000000000
      1439       480  TIP3  H1           -5.2283686876        8.0221604170       -0.1424123332  CLST         480          1.0000000000
      1440       480  TIP3  H2           -5.7150625374        6.6428230636       -0.0296550506  CLST         480          1.0000000000
      1441       481  TIP3  OH2          -3.0742201921        2.3919542185       11.9568114399  CLST         481          1.0000000000
      1442       481  TIP3  H1           -2.1694892039        2.3752960381       11.7319302375  CLST         481          1.0000000000
      1443       481  TIP3  H2           -3.1931624721        1.7901099047       12.6032057304  CLST         481          1.0000000000
      1444       482  TIP3  OH2          -8.0368227473       11.4986639432       -7.5161325228  CLST         482          1.0000000000
      1445       482  TIP3  H1           -8.7997338121       11.2212705266       -8.1342591636  CLST         482          1.0000000000
      1446       482  TIP3  H2           -7.4909779331       12.0626814976       -8.1084327345  CLST         482          1.0000000000
      1447       483  TIP3  OH2           6.2485095431       -5.9107052268       12.6504065899  CLST         483          1.0000000000
      1448       483  TIP3  H1            5.6616152170       -6.6803177395       12.4763521335  CLST         483          1.0000000000
      1449       483  TIP3  H2            6.3793045453       -5.6478855675       11.7254821444  CLST         483          1.0000000000
      1450       484  TIP3  OH2           6.7670027144       -2.9995997218        2.9684346202  CLST         484          1.0000000000
      1451       484  TIP3  H1            5.7838203399       -3.2810632963        2.8659043590  CLST         484          1.0000000000
      1452       484  TIP3  H2            6.6429040260       -2.3892584658        3.7324041726  CLST         484          1.0000000000
      1453       485  TIP3  OH2         -11.5762381852        4.5567089936       10.0702344866  CLST         485          1.0000000000
      1454       485  TIP3  H1          -11.2977650776        3.6486719756       10.1682147723  CLST         485          1.0000000000
      1455       485  TIP3  H2          -12.3519410850        4.4540679321        9.4616286816  CLST         485          1.0000000000
      1456       486  TIP3  OH2           8.5485998570       -7.1803734696       13.6750089563  CLST         486          1.0000000000
      1457       486  TIP3  H1            8.6170144070       -7.1192890772       14.5830188660  CLST         486          1.0000000000
      1458       486  TIP3  H2            7.7074264110       -6.6886408220       13.5576538572  CLST         486          1.0000000000
      1459       487  TIP3  OH2          12.2731177272       -8.5274947424        6.0725571505  CLST         487          1.0000000000
      1460       487  TIP3  H1           11.2922680674       -8.3496421803        6.1282737254  CLST         487          1.0000000000
      1461       487  TIP3  H2           12.5354306606       -8.6691021079        6.9893310983  CLST         487          1.0000000000
      1462       488  TIP3  OH2          15.0290121734        8.4759064691        7.5604664910  CLST         488          1.0000000000
      1463       488  TIP3  H1           15.3018678598        7.6073993871        7.8890918570  CLST         488          1.0000000000
      1464       488  TIP3  H2           13.9406760909        7.5362387255        8.2955303739  CLST         488          1.0000000000
      1465       489  TIP3  OH2          -6.2271396693      -10.6693388581       11.8657034384  CLST         489          1.0000000000
      1466       489  TIP3  H1           -6.3256021265       -9.7318378704       11.6049714673  CLST         489          1.0000000000
      1467       489  TIP3  H2           -6.9018814067      -11.1200032953       11.1362073075  CLST         489          1.0000000000
      1468       490  TIP3  OH2           6.7094673475      -13.1990061516        2.3750876057  CLST         490          1.0000000000
      1469       490  TIP3  H1            6.6366401370      -12.3318140708        2.7879221707  CLST         490          1.0000000000
      1470       490  TIP3  H2            6.8543318685      -13.8323281574        3.0495084023  CLST         490          1.0000000000
      1471       491  TIP3  OH2           3.0668911509       -9.1731631019        5.1487908653  CLST         491          1.0000000000
      1472       491  TIP3  H1            2.1138225524       -9.0591901933        5.4374900247  CLST         491          1.0000000000
      1473       491  TIP3  H2            2.9668417914       -9.6573223063        4.3349205607  CLST         491          1.0000000000
      1474       492  TIP3  OH2          -0.4663085346       -6.5683175242       12.2845824185  CLST         492          1.0000000000
      1475       492  TIP3  H1           -0.7786907509       -7.7830719993       12.0949010375  CLST         492          1.0000000000
      1476       492  TIP3  H2           -1.9607000467       -6.6024739604       12.2516106889  CLST         492          1.0000000000
      1477       493  TIP3  OH2           3.4339594858       10.8380098146        7.0575383599  CLST         493          1.0000000000
      1478       493  TIP3  H1            4.0775705390       10.9437172989        7.7834377245  CLST         493          1.0000000000
      1479       493  TIP3  H2            2.6765100286       10.4536257199        7.5663428686  CLST         493          1.0000000000
      1480       494  TIP3  OH2          -9.2396370978        5.3723112508       -0.8244496615  CLST         494          1.0000000000
      1481       494  TIP3  H1           -9.6378922507        6.0740220039       -1.4149797077  CLST         494          1.0000000000
      1482       494  TIP3  H2           -9.7448487558        5.6723026520       -0.0289494970  CLST         494          1.0000000000
      1483       495  TIP3  OH2           4.9798452510       -6.7736360146       -1.9861964189  CLST         495          1.0000000000
      1484       495  TIP3  H1            5.5094202687       -6.2809572493       -2.6699854265  CLST         495          1.0000000000
      1485       495  TIP3  H2            5.8014639633       -7.2497449797       -1.6551167352  CLST         495          1.0000000000
      1486       496  TIP3  OH2         -12.7836163858      -10.5774054275        7.7098348184  CLST         496          1.0000000000
      1487       496  TIP3  H1          -13.0557335686      -11.3441458971        8.2270966483  CLST         496          1.0000000000
      1488       496  TIP3  H2          -12.6623139788      -11.1388065269        6.9130007089  CLST         496          1.0000000000
      1489       497  TIP3  OH2          -9.7682583757      -13.2650348185       -7.2422493677  CLST         497          1.0000000000
      1490       497  TIP3  H1          -10.1622998302      -14.0994151005       -7.4929015791  CLST         497          1.0000000000
      1491       497  TIP3  H2          -10.2395469202      -12.6889861497       -7.8219855899  CLST         497          1.0000000000
      1492       498  TIP3  OH2          -5.6815628183        0.5683088983      -11.2229282469  CLST         498          1.0000000000
      1493       498  TIP3  H1           -5.9765797017        0.5163174431      -12.1479453682  CLST         498          1.0000000000
      1494       498  TIP3  H2           -5.4190875867        1.5006333503      -11.1588092295  CLST         498          1.0000000000
      1495       499  TIP3  OH2          11.6805003853        6.5333418597        3.6940855418  CLST         499          1.0000000000
      1496       499  TIP3  H1           12.3261359727        6.8639118125        3.1180507534  CLST         499          1.0000000000
      1497       499  TIP3  H2           11.2416031862        7.3230400342        4.0476932536  CLST         499          1.0000000000
      1498       500  TIP3  OH2           2.3769336054       -8.7624951837      -13.2502931392  CLST         500          1.0000000000
      1499       500  TIP3  H1            1.9696268624       -9.0329318368      -14.0034805259  CLST         500          1.0000000000
      1500       500  TIP3  H2            2.5461069557       -9.5946305845      -12.6893366726  CLST         500          1.0000000000
      1501       501  TIP3  OH2           1.3802509721      -11.0365006392       13.9311054653  CLST         501          1.0000000000
      1502       501  TIP3  H1            1.4415012067      -11.9712304721       13.9531072592  CLST         501          1.0000000000
      1503       501  TIP3  H2            2.2953136417      -10.7976561163       13.8266667711  CLST         501          1.0000000000
      1504       502  TIP3  OH2           6.0632198572        3.7200191562        9.6406673106  CLST         502          1.0000000000
      1505       502  TIP3  H1            6.3855930602        4.1160613854       10.4962698113  CLST         502          1.0000000000
      1506       502  TIP3  H2            6.9080954895        3.3539739706        9.3012581754  CLST         502          1.0000000000
      1507       503  TIP3  OH2          10.3114008668       -0.8617510179        0.2785611892  CLST         503          1.0000000000
      1508       503  TIP3  H1           11.2489698447       -0.6259020242        0.4726926231  CLST         503          1.0000000000
      1509       503  TIP3  H2           10.0110995127        0.0021598325       -0.0905635073  CLST         503          1.0000000000
      1510       504  TIP3  OH2           8.2155237815      -13.7882070321       10.8060900729  CLST         504          1.0000000000
      1511       504  TIP3  H1            7.8744871992      -13.5438462844        9.9475699684  CLST         504          1.0000000000
      1512       504  TIP3  H2            8.0573175663      -14.6841572941       10.8638088566  CLST         504          1.0000000000
      1513       505  TIP3  OH2           3.5762646434      -10.8761279324       -5.7119746256  CLST         505          1.0000000000
      1514       505  TIP3  H1            3.3615015929      -10.3263014016       -6.5618073756  CLST         505          1.0000000000
      1515       505  TIP3  H2            3.2857140625      -10.3408120997       -4.9665157635  CLST         505          1.0000000000
      1516       506  TIP3  OH2          -9.2199080465       -3.2950592274       -8.0548506124  CLST         506          1.0000000000
      1517       506  TIP3  H1           -8.8731132835       -2.2892038010       -8.0047766776  CLST         506          1.0000000000
      1518       506  TIP3  H2           -9.8599967999       -3.0926307133       -8.7590242823  CLST         506          1.0000000000
      1519       507  TIP3  OH2          11.2689491048        9.6988022162      -12.9326155534  CLST         507          1.0000000000
      1520       507  TIP3  H1           11.5421430907        9.9825190009      -13.6552870188  CLST         507          1.0000000000
      1521       507  TIP3  H2           11.0800274286        8.7951534811      -12.5450666871  CLST         507          1.0000000000
      1522       508  TIP3  OH2           9.2384606135       12.2465386768        8.8662658470  CLST         508          1.0000000000
      1523       508  TIP3  H1            8.8236465637       11.8932189546        8.1116123597  CLST         508          1.0000000000
      1524       508  TIP3  H2           10.0030818069       12.6309653578        8.4113945085  CLST         508          1.0000000000
      1525       509  TIP3  OH2          -0.8530247789       -1.5186838928      -11.3372727028  CLST         509          1.0000000000
      1526       509  TIP3  H1           -1.8546724951       -1.6413809347      -11.3065136497  CLST         509          1.0000000000
      1527       509  TIP3  H2           -0.9059396644       -0.5836341340      -10.9216019548  CLST         509          1.0000000000
      1528       510  TIP3  OH2           8.1840888427        2.2503739016       11.5225222621  CLST         510          1.0000000000
      1529       510  TIP3  H1            8.1696178076        1.2396679532       11.5427137651  CLST         510          1.0000000000
      1530       510  TIP3  H2            8.9124751768        2.4106234730       10.9207079094  CLST         510          1.0000000000
      1531       511  TIP3  OH2          -8.7380585808       -5.9512442783       -0.7678095547  CLST         511          1.0000000000
      1532       511  TIP3  H1           -9.7068893695       -5.8952976088       -0.8771630904  CLST         511          1.0000000000
      1533       511  TIP3  H2           -8.5767790471       -5.2548556718       -1.4737044730  CLST         511          1.0000000000
      1534       512  TIP3  OH2          10.0335442486        7.0354814157        6.9537878248  CLST         512          1.0000000000
      1535       512  TIP3  H1           10.4690491898        7.6908415332        7.5771594284  CLST         512          1.0000000000
      1536       512  TIP3  H2           10.1617649239        7.6683046591        6.1772742950  CLST         512          1.0000000000
      1537       513  TIP3  OH2         -11.8090671354       10.4690660071        9.2591321093  CLST         513          1.0000000000
      1538       513  TIP3  H1          -11.2384756345       11.2508806720        9.4791114331  CLST         513          1.0000000000
      1539       513  TIP3  H2          -11.5608035183        9.8942798643       10.0214979060  CLST         513          1.0000000000
      1540       514  TIP3  OH2          -4.8165270926        4.9659785208        0.1731557877  CLST         514          1.0000000000
      1541       514  TIP3  H1           -4.0756922815        5.4012186273        0.6891181967  CLST         514          1.0000000000
      1542       514  TIP3  H2           -4.3946251559        4.9552657310       -0.7328350611  CLST         514          1.0000000000
      1543       515  TIP3  OH2          -0.8218517092        1.0663752598       -4.2822670663  CLST         515          1.0000000000
      1544       515  TIP3  H1           -1.6586448392        1.6307303979       -4.1752632406  CLST         515          1.0000000000
      1545       515  TIP3  H2           -0.1307760421        1.7396340755       -4.5432498206  CLST         515          1.0000000000
      1546       516  TIP3  OH2          -7.3860941823       -8.5280502393        6.3848951579  CLST         516          1.0000000000
      1547       516  TIP3  H1           -7.7293442821       -8.2820727217        5.5013770237  CLST         516          1.0000000000
      1548       516  TIP3  H2           -7.9117049386       -7.7799108957        6.8383373001  CLST         516          1.0000000000
      1549       517  TIP3  OH2           0.6639835353       11.0826542825       11.5850677321  CLST         517          1.0000000000
      1550       517  TIP3  H1            0.8270696822       11.1405135289       10.6725485311  CLST         517          1.0000000000
      1551       517  TIP3  H2           -0.3326399602       11.1342855827       11.4873451131  CLST         517          1.0000000000
      1552       518  TIP3  OH2         -11.5678386110       -3.6109946252      -11.3171505405  CLST         518          1.0000000000
      1553       518  TIP3  H1          -11.8585550948       -3.1508413605      -12.1306907311  CLST         518          1.0000000000
      1554       518  TIP3  H2          -10.9164626731       -4.1753492064      -11.7311601304  CLST         518          1.0000000000
      1555       519  TIP3  OH2           2.0755375616        3.3416307076        3.3828812220  CLST         519          1.0000000000
      1556       519  TIP3  H1            1.6342988800        4.1191134244        2.8703411233  CLST         519          1.0000000000
      1557       519  TIP3  H2            1.7858987774        2.5946802350        2.6923073354  CLST         519          1.0000000000
      1558       520  TIP3  OH2         -10.3150537828        6.2341736973        8.2236808683  CLST         520          1.0000000000
      1559       520  TIP3  H1          -10.7317248833        5.7479605599        7.4127142433  CLST         520          1.0000000000
      1560       520  TIP3  H2          -10.6245453176        5.5766797499        8.9380156776  CLST         520          1.0000000000
      1561       521  TIP3  OH2           8.2516912331       -8.9143586110       -9.5932394305  CLST         521          1.0000000000
      1562       521  TIP3  H1            8.5927818899       -9.2939151131      -10.4200207746  CLST         521          1.0000000000
      1563       521  TIP3  H2            7.9565914548       -8.0594021510      -10.0210239212  CLST         521          1.0000000000
      1564       522  TIP3  OH2          -5.5112349801       -7.0078865853        8.1200280501  CLST         522          1.0000000000
      1565       522  TIP3  H1           -5.9206437836       -7.7682746685        7.6310093134  CLST         522          1.0000000000
      1566       522  TIP3  H2           -4.5985618183       -7.2568548795        8.4541932008  CLST         522          1.0000000000
      1567       523  TIP3  OH2          -4.0721316692       12.0347583645      -13.6650337256  CLST         523          1.0000000000
      1568       523  TIP3  H1           -2.5161251514       12.2647132652      -13.9874334491  CLST         523          1.0000000000
      1569       523  TIP3  H2           -4.4493270351       12.6383893955      -14.2311144457  CLST         523          1.0000000000
      1570       524  TIP3  OH2           6.9071192572        3.7817076926       -1.6624913561  CLST         524          1.0000000000
      1571       524  TIP3  H1            7.2951141022        2.9606556249       -2.0674434127  CLST         524          1.0000000000
      1572       524  TIP3  H2            5.9742211204        3.7097833106       -1.9933507446  CLST         524          1.0000000000
      1573       525  TIP3  OH2           0.4546948545        6.9320035591       -2.5197902356  CLST         525          1.0000000000
      1574       525  TIP3  H1            0.6461822285        6.2580513224       -3.2193528347  CLST         525          1.0000000000
      1575       525  TIP3  H2            0.1910216937        6.1716902642       -1.8761257371  CLST         525          1.0000000000
      1576       526  TIP3  OH2           7.0102440188       -5.5850501816       -3.5863697005  CLST         526          1.0000000000
      1577       526  TIP3  H1            7.0876274869       -5.5546356014       -4.5534445527  CLST         526          1.0000000000
      1578       526  TIP3  H2            7.9598990903       -5.5942838121       -3.3099767912  CLST         526          1.0000000000
      1579       527  TIP3  OH2           0.4881578178        7.2902168597        3.9267490972  CLST         527          1.0000000000
      1580       527  TIP3  H1            1.0959770173        7.6390683007        4.5850185957  CLST         527          1.0000000000
      1581       527  TIP3  H2           -0.1918902360        7.8989994140        3.5913870833  CLST         527          1.0000000000
      1582       528  TIP3  OH2          -2.8813216296       10.0381090176        8.8650670592  CLST         528          1.0000000000
      1583       528  TIP3  H1           -3.1505231656        9.6169248120        9.7073861992  CLST         528          1.0000000000
      1584       528  TIP3  H2           -3.6702163248       10.0501989468        8.2867941341  CLST         528          1.0000000000
      1585       529  TIP3  OH2          -6.1779978157       12.3074463440       -9.3020182845  CLST         529          1.0000000000
      1586       529  TIP3  H1           -5.3278075116       12.2054595984       -8.8852559803  CLST         529          1.0000000000
      1587       529  TIP3  H2           -6.1184977666       11.7185612616      -10.0674741797  CLST         529          1.0000000000
      1588       530  TIP3  OH2          -4.4713217416       -5.5831899535      -13.1482054146  CLST         530          1.0000000000
      1589       530  TIP3  H1           -4.4093022375       -6.6116272443      -13.2463231805  CLST         530          1.0000000000
      1590       530  TIP3  H2           -3.5453690189       -5.3238539782      -13.0476981832  CLST         530          1.0000000000
      1591       531  TIP3  OH2         -11.5358138037       -0.3982945381       10.3971343108  CLST         531          1.0000000000
      1592       531  TIP3  H1          -12.0893757415       -0.3346975603       11.1231313633  CLST         531          1.0000000000
      1593       531  TIP3  H2          -11.9372812898       -0.9272015818        9.6807342831  CLST         531          1.0000000000
      1594       532  TIP3  OH2         -12.0373237601       -3.0555603176       -8.7012004443  CLST         532          1.0000000000
      1595       532  TIP3  H1          -12.4808004527       -3.8815203339       -8.6062312462  CLST         532          1.0000000000
      1596       532  TIP3  H2          -11.9509464754       -3.0085984190       -9.7132394157  CLST         532          1.0000000000
      1597       533  TIP3  OH2          -2.8268105901       -7.3105300554        8.7055276468  CLST         533          1.0000000000
      1598       533  TIP3  H1           -2.0868243532       -7.9719345108        8.5565409475  CLST         533          1.0000000000
      1599       533  TIP3  H2           -2.3083757273       -6.4836335255        8.3173539574  CLST         533          1.0000000000
      1600       534  TIP3  OH2           0.4187507208      -13.3110203240       -7.7259174638  CLST         534          1.0000000000
      1601       534  TIP3  H1            0.6130743720      -12.9419348959       -8.6106784152  CLST         534          1.0000000000
      1602       534  TIP3  H2            1.3627028086      -13.3037511418       -7.3852616174  CLST         534          1.0000000000
      1603       535  TIP3  OH2           2.6998517774        3.2083166961       -7.4469310081  CLST         535          1.0000000000
      1604       535  TIP3  H1            3.2789324650        2.6664579905       -6.8405052043  CLST         535          1.0000000000
      1605       535  TIP3  H2            1.9705110101        3.3101256700       -6.7869538892  CLST         535          1.0000000000
      1606       536  TIP3  OH2           7.9847930397      -12.6543478513       -3.4283541848  CLST         536          1.0000000000
      1607       536  TIP3  H1            7.4954387038      -12.6806698150       -4.2964757237  CLST         536          1.0000000000
      1608       536  TIP3  H2            8.6260332948      -13.2818312796       -3.5864532710  CLST         536          1.0000000000
      1609       537  TIP3  OH2          11.8175850830       -2.6404155845       -7.5901259867  CLST         537          1.0000000000
      1610       537  TIP3  H1           11.1551267444       -1.9063925951       -7.7267711389  CLST         537          1.0000000000
      1611       537  TIP3  H2           12.4474600145       -2.3255530950       -6.8881914735  CLST         537          1.0000000000
      1612       538  TIP3  OH2          -5.1151205129      -10.9396644634        0.7693423834  CLST         538          1.0000000000
      1613       538  TIP3  H1           -4.2852883100      -11.2428526866        1.3261433623  CLST         538          1.0000000000
      1614       538  TIP3  H2           -4.7705319583       -9.9895548960        0.7160575401  CLST         538          1.0000000000
      1615       539  TIP3  OH2           2.5652119566       -5.1415008030        0.8055823086  CLST         539          1.0000000000
      1616       539  TIP3  H1            1.6167657286       -5.2813526486        1.1859783247  CLST         539          1.0000000000
      1617       539  TIP3  H2            2.3170698224       -5.6656676622       -0.0714349209  CLST         539          1.0000000000
      1618       540  TIP3  OH2           4.0566978801       -6.7706148284        4.7732415714  CLST         540          1.0000000000
      1619       540  TIP3  H1            3.7266230647       -7.6889039250        4.9941222811  CLST         540          1.0000000000
      1620       540  TIP3  H2            4.3022443193       -6.8864631357        3.8330664901  CLST         540          1.0000000000
      1621       541  TIP3  OH2          -5.4697182603       10.4605106717        2.1987348837  CLST         541          1.0000000000
      1622       541  TIP3  H1           -6.0519108535       10.6028205033        2.9848994829  CLST         541          1.0000000000
      1623       541  TIP3  H2           -4.7500536340       11.1226188522        2.3648502887  CLST         541          1.0000000000
      1624       542  TIP3  OH2         -10.8121232616       14.3295321999        5.5555459922  CLST         542          1.0000000000
      1625       542  TIP3  H1          -10.6700367727       15.2521250507        5.2286769989  CLST         542          1.0000000000
      1626       542  TIP3  H2          -10.6034630232       13.8939200355        4.6328659092  CLST         542          1.0000000000
      1627       543  TIP3  OH2         -10.6068884221       11.4876587171       -2.3247726077  CLST         543          1.0000000000
      1628       543  TIP3  H1          -11.2840002532       10.7894974692       -2.5786559407  CLST         543          1.0000000000
      1629       543  TIP3  H2          -10.4267507369       11.9285526790       -3.1920144651  CLST         543          1.0000000000
      1630       544  TIP3  OH2          -0.4138331360        5.6788452400       -5.5972330971  CLST         544          1.0000000000
      1631       544  TIP3  H1           -0.3205212143        5.2215309983       -6.4982598459  CLST         544          1.0000000000
      1632       544  TIP3  H2            0.3121557588        5.2613762504       -5.0827531734  CLST         544          1.0000000000
      1633       545  TIP3  OH2          -7.8869487251        2.4875066650      -12.5332885649  CLST         545          1.0000000000
      1634       545  TIP3  H1           -8.0028329337        2.0669247881      -13.3659491391  CLST         545          1.0000000000
      1635       545  TIP3  H2           -8.5269408602        3.2887623861      -12.5808688136  CLST         545          1.0000000000
      1636       546  TIP3  OH2           4.0404348799       11.0966146817       -2.2515064354  CLST         546          1.0000000000
      1637       546  TIP3  H1            3.4999988197       10.2298131771       -2.0480164580  CLST         546          1.0000000000
      1638       546  TIP3  H2            4.6492762763       10.9694775968       -1.4129675174  CLST         546          1.0000000000
      1639       547  TIP3  OH2          -3.4341585766       -1.9768207860      -11.1043121883  CLST         547          1.0000000000
      1640       547  TIP3  H1           -3.5028921633       -1.9686196216      -10.1343344775  CLST         547          1.0000000000
      1641       547  TIP3  H2           -3.9860952721       -1.1817383367      -11.3875274771  CLST         547          1.0000000000
      1642       548  TIP3  OH2          10.6351198923        2.3120843424        1.3854090810  CLST         548          1.0000000000
      1643       548  TIP3  H1            9.7050750617        2.0290247828        1.6060786988  CLST         548          1.0000000000
      1644       548  TIP3  H2           10.5681127798        3.2092599774        1.7870931816  CLST         548          1.0000000000
