* Geometry rescue: EQUI at step 16500
*
        1644  EXT
         1         1  TIP3  OH2           4.5763503857       -1.6521956754       -2.3487369875  CLST           1          1.0000000000
         2         1  TIP3  H1            4.9337147177       -1.9163739891       -1.4093485242  CLST           1          1.0000000000
         3         1  TIP3  H2            5.3213082593       -2.1337794823       -2.8012951266  CLST           1          1.0000000000
         4         2  TIP3  OH2          10.8380076837        7.5065800171      -11.5158425967  CLST           2          1.0000000000
         5         2  TIP3  H1           11.2046221566        7.2772049014      -10.6565647622  CLST           2          1.0000000000
         6         2  TIP3  H2            9.8985899545        7.2481670012      -11.3685225998  CLST           2          1.0000000000
         7         3  TIP3  OH2           8.9312364734        5.2908473511       -4.2730032787  CLST           3          1.0000000000
         8         3  TIP3  H1            9.2582068825        5.5654681393       -3.3718106583  CLST           3          1.0000000000
         9         3  TIP3  H2            8.7045599268        6.1462766291       -4.6948155208  CLST           3          1.0000000000
        10         4  TIP3  OH2          -3.0129206209        6.8324349437       10.3026617171  CLST           4          1.0000000000
        11         4  TIP3  H1           -3.8052466360        7.0832077192        9.6746719727  CLST           4          1.0000000000
        12         4  TIP3  H2           -3.2988904213        7.4948126852       10.9439823326  CLST           4          1.0000000000
        13         5  TIP3  OH2           9.2621338544        6.2164970858       10.7649179964  CLST           5          1.0000000000
        14         5  TIP3  H1            8.6072651050        5.6985449803       11.2838265081  CLST           5          1.0000000000
        15         5  TIP3  H2            9.0192183213        5.6678997714        9.9413265736  CLST           5          1.0000000000
        16         6  TIP3  OH2          10.4648540847       -6.0195288201      -11.6421489738  CLST           6          1.0000000000
        17         6  TIP3  H1           11.0298570322       -5.5179830916      -10.9844709595  CLST           6          1.0000000000
        18         6  TIP3  H2           10.4989010135       -5.2637803945      -12.3368183866  CLST           6          1.0000000000
        19         7  TIP3  OH2         -12.3172556465        8.3421197729        5.7768031625  CLST           7          1.0000000000
        20         7  TIP3  H1          -12.8576313533        9.1598744459        6.0661535128  CLST           7          1.0000000000
        21         7  TIP3  H2          -11.5869378055        8.5143153477        6.4770004163  CLST           7          1.0000000000
        22         8  TIP3  OH2          -4.4650659977       -8.3255559808        0.4797187980  CLST           8          1.0000000000
        23         8  TIP3  H1           -4.6970641581       -7.9205119329        1.2591408987  CLST           8          1.0000000000
        24         8  TIP3  H2           -3.7229665997       -7.7842076583        0.1804183407  CLST           8          1.0000000000
        25         9  TIP3  OH2           2.5278225889      -14.3020730686       -4.2158259566  CLST           9          1.0000000000
        26         9  TIP3  H1            1.7037929657      -14.6373574971       -3.8834769430  CLST           9          1.0000000000
        27         9  TIP3  H2            2.8802197676      -14.0265393447       -3.3566580029  CLST           9          1.0000000000
        28        10  TIP3  OH2         -14.3635817928       -1.2297685513       -0.5494141418  CLST          10          1.0000000000
        29        10  TIP3  H1          -13.8457621325       -1.5812670878       -1.2758609766  CLST          10          1.0000000000
        30        10  TIP3  H2          -14.6885800815       -1.7853263854        0.0118787790  CLST          10          1.0000000000
        31        11  TIP3  OH2           6.8338239831        6.9013078239       -1.6096498450  CLST          11          1.0000000000
        32        11  TIP3  H1            7.2018931253        6.0384344878       -1.3807953897  CLST          11          1.0000000000
        33        11  TIP3  H2            6.6451163361        6.8173369898       -2.5672427533  CLST          11          1.0000000000
        34        12  TIP3  OH2          -8.3042006348        2.6131919363        1.8564503731  CLST          12          1.0000000000
        35        12  TIP3  H1           -7.7606980075        2.9097072179        1.0421216044  CLST          12          1.0000000000
        36        12  TIP3  H2           -9.1917002194        2.7733283565        1.4031845659  CLST          12          1.0000000000
        37        13  TIP3  OH2           7.6726061717        2.3992476714        1.9982690606  CLST          13          1.0000000000
        38        13  TIP3  H1            7.7208721215        3.3362652801        1.6117239715  CLST          13          1.0000000000
        39        13  TIP3  H2            7.6847545893        2.6958370145        2.9304217414  CLST          13          1.0000000000
        40        14  TIP3  OH2          -0.2776722843        2.2636137663        7.9038390770  CLST          14          1.0000000000
        41        14  TIP3  H1            0.0730798871        3.1319643076        7.5001918216  CLST          14          1.0000000000
        42        14  TIP3  H2            0.3031555547        1.6608918937        7.3724528174  CLST          14          1.0000000000
        43        15  TIP3  OH2          -8.9417557691       -3.8228575642      -12.6747341597  CLST          15          1.0000000000
        44        15  TIP3  H1           -8.1720081364       -3.9761205982      -13.2864475219  CLST          15          1.0000000000
        45        15  TIP3  H2           -8.4920372987       -4.4906133503      -12.0080368333  CLST          15          1.0000000000
        46        16  TIP3  OH2          -3.6981037417      -12.6928032296       -6.1308591892  CLST          16          1.0000000000
        47        16  TIP3  H1           -4.2300354559      -12.8646931350       -5.3352520093  CLST          16          1.0000000000
        48        16  TIP3  H2           -2.7583901633      -12.7323568207       -5.8093199197  CLST          16          1.0000000000
        49        17  TIP3  OH2           4.9134590854      -13.2285610618       -8.5588070413  CLST          17          1.0000000000
        50        17  TIP3  H1            5.5894668441      -13.1279686516       -7.8342698331  CLST          17          1.0000000000
        51        17  TIP3  H2            4.1392883468      -13.5348034402       -8.0085691490  CLST          17          1.0000000000
        52        18  TIP3  OH2         -11.6081653502       -6.7724854848       -1.4254563066  CLST          18          1.0000000000
        53        18  TIP3  H1          -12.0001950492       -5.9123940037       -1.6291062405  CLST          18          1.0000000000
        54        18  TIP3  H2          -11.4547766066       -6.9977658614       -2.4096364800  CLST          18          1.0000000000
        55        19  TIP3  OH2          11.1246729875       -0.0987984527        9.5479024266  CLST          19          1.0000000000
        56        19  TIP3  H1           10.6728434388       -0.8948735986        9.8517414887  CLST          19          1.0000000000
        57        19  TIP3  H2           11.3402319546       -0.3386680136        8.6259677795  CLST          19          1.0000000000
        58        20  TIP3  OH2         -13.3433759552        1.6035606745        2.7632935907  CLST          20          1.0000000000
        59        20  TIP3  H1          -13.2388889232        1.2383506400        1.8301873295  CLST          20          1.0000000000
        60        20  TIP3  H2          -14.2630755895        1.4006925043        2.7763346745  CLST          20          1.0000000000
        61        21  TIP3  OH2         -10.0505922828       12.3822237328       -5.4980091662  CLST          21          1.0000000000
        62        21  TIP3  H1          -10.0708141607       13.2894204878       -5.6216052234  CLST          21          1.0000000000
        63        21  TIP3  H2           -9.4902834628       11.9604447041       -6.1134426870  CLST          21          1.0000000000
        64        22  TIP3  OH2           2.8613288460       12.2803756349       -6.5012070577  CLST          22          1.0000000000
        65        22  TIP3  H1            2.8306555195       11.3568615232       -6.2552148028  CLST          22          1.0000000000
        66        22  TIP3  H2            3.2274876036       12.8401378678       -5.6535259777  CLST          22          1.0000000000
        67        23  TIP3  OH2           5.5795102545       -1.6082097766       11.4631350047  CLST          23          1.0000000000
        68        23  TIP3  H1            4.8765499954       -2.2071363739       11.1999964534  CLST          23          1.0000000000
        69        23  TIP3  H2            5.2355369220       -0.7664793485       11.1151657790  CLST          23          1.0000000000
        70        24  TIP3  OH2          -0.2043376410        1.1202067663        4.4443797434  CLST          24          1.0000000000
        71        24  TIP3  H1            0.7000233197        1.0688522923        4.7960184626  CLST          24          1.0000000000
        72        24  TIP3  H2           -0.6939398332        0.4801448885        5.0051228832  CLST          24          1.0000000000
        73        25  TIP3  OH2           3.2259398919        2.1099852783       -2.5509245573  CLST          25          1.0000000000
        74        25  TIP3  H1            3.6358788757        1.4447473574       -1.9561851057  CLST          25          1.0000000000
        75        25  TIP3  H2            3.6683619774        2.9405939068       -2.2931046726  CLST          25          1.0000000000
        76        26  TIP3  OH2          11.3695486381        5.5488867547       -6.5644465726  CLST          26          1.0000000000
        77        26  TIP3  H1           10.4642813980        5.1993539278       -6.7870598269  CLST          26          1.0000000000
        78        26  TIP3  H2           11.1441622480        6.3459101899       -6.0084476629  CLST          26          1.0000000000
        79        27  TIP3  OH2         -10.5209670201        7.3707691843       -5.2729752037  CLST          27          1.0000000000
        80        27  TIP3  H1          -10.6101746247        7.7896576544       -4.3920079543  CLST          27          1.0000000000
        81        27  TIP3  H2          -10.6839371564        8.1336508709       -5.8298232151  CLST          27          1.0000000000
        82        28  TIP3  OH2          -4.2778813373      -10.4052437639       -6.9384615377  CLST          28          1.0000000000
        83        28  TIP3  H1           -4.1607037829      -11.3960195780       -6.6918980055  CLST          28          1.0000000000
        84        28  TIP3  H2           -5.0133098780      -10.1730831963       -6.3493359815  CLST          28          1.0000000000
        85        29  TIP3  OH2         -10.7428262031        7.6008773781       -2.5751602673  CLST          29          1.0000000000
        86        29  TIP3  H1           -9.9508126085        8.7431281840       -1.6123801901  CLST          29          1.0000000000
        87        29  TIP3  H2          -12.0178598393        8.5581610107       -2.4305893030  CLST          29          1.0000000000
        88        30  TIP3  OH2           8.9343692294      -10.3852542849       -2.0157641708  CLST          30          1.0000000000
        89        30  TIP3  H1            9.4605593706      -10.9530173136       -1.3533067063  CLST          30          1.0000000000
        90        30  TIP3  H2            8.5743476459      -11.2417160886       -2.4875673240  CLST          30          1.0000000000
        91        31  TIP3  OH2          -9.6773245076       -1.1289712982      -13.0400800851  CLST          31          1.0000000000
        92        31  TIP3  H1           -9.4923307743       -2.0944803757      -12.9065809396  CLST          31          1.0000000000
        93        31  TIP3  H2           -9.6352480125       -0.7828777952      -12.0955805535  CLST          31          1.0000000000
        94        32  TIP3  OH2          -8.6961124456       -6.6166431312        7.0816787830  CLST          32          1.0000000000
        95        32  TIP3  H1           -9.6472754729       -6.7629786049        7.0044479592  CLST          32          1.0000000000
        96        32  TIP3  H2           -8.6293282007       -5.8242744960        6.5122490074  CLST          32          1.0000000000
        97        33  TIP3  OH2          11.8379382241       -8.9387462258        9.0753585361  CLST          33          1.0000000000
        98        33  TIP3  H1           11.8866229646       -9.9094640786        8.9833342192  CLST          33          1.0000000000
        99        33  TIP3  H2           11.4440137531       -8.7994943090        9.8843177135  CLST          33          1.0000000000
       100        34  TIP3  OH2           4.2664846035       -3.8569855908        2.9204167392  CLST          34          1.0000000000
       101        34  TIP3  H1            3.7204415407       -3.9919672539        2.1056967954  CLST          34          1.0000000000
       102        34  TIP3  H2            4.3259610996       -4.7797991461        3.2218418272  CLST          34          1.0000000000
       103        35  TIP3  OH2           6.1174784243       -0.9227090186        4.4409936939  CLST          35          1.0000000000
       104        35  TIP3  H1            5.1743123040       -1.1345072606        4.6863934790  CLST          35          1.0000000000
       105        35  TIP3  H2            6.4072015792       -0.2913393707        5.1327256500  CLST          35          1.0000000000
       106        36  TIP3  OH2          -1.3788402854        1.4675439030        2.0757872935  CLST          36          1.0000000000
       107        36  TIP3  H1           -2.0197338906        0.7851778809        1.9018284175  CLST          36          1.0000000000
       108        36  TIP3  H2           -1.0753922389        1.1656272461        2.9822128595  CLST          36          1.0000000000
       109        37  TIP3  OH2          -4.2746938468       -8.0945323321      -12.9883303704  CLST          37          1.0000000000
       110        37  TIP3  H1           -4.8685516356       -8.4794628761      -12.3216027713  CLST          37          1.0000000000
       111        37  TIP3  H2           -4.0048065983       -8.9134211049      -13.4922544729  CLST          37          1.0000000000
       112        38  TIP3  OH2          -3.1858552901        2.2446967574       -4.3698150505  CLST          38          1.0000000000
       113        38  TIP3  H1           -3.0643091327        3.2036466774       -4.6323460933  CLST          38          1.0000000000
       114        38  TIP3  H2           -3.6305875110        1.9319131155       -5.2009986563  CLST          38          1.0000000000
       115        39  TIP3  OH2           1.6116467608      -10.8544075535        2.0114377743  CLST          39          1.0000000000
       116        39  TIP3  H1            1.4331700823      -11.4087791795        2.8084796726  CLST          39          1.0000000000
       117        39  TIP3  H2            0.6806914635      -10.4934438451        1.9681919349  CLST          39          1.0000000000
       118        40  TIP3  OH2          -7.0583293532       12.6227135976        8.2810995185  CLST          40          1.0000000000
       119        40  TIP3  H1           -7.9814481580       12.9129749556        7.9987210848  CLST          40          1.0000000000
       120        40  TIP3  H2           -6.4965277665       12.9069135589        7.5229742147  CLST          40          1.0000000000
       121        41  TIP3  OH2           9.7365172834       -2.3424671878      -11.1222728565  CLST          41          1.0000000000
       122        41  TIP3  H1            9.1237072129       -3.0196355101      -10.6912761229  CLST          41          1.0000000000
       123        41  TIP3  H2            9.1461063371       -1.5847482791      -11.0974923280  CLST          41          1.0000000000
       124        42  TIP3  OH2           9.7084243128       10.3181675612      -10.7707464502  CLST          42          1.0000000000
       125        42  TIP3  H1           10.4934967258       10.0013258456      -10.2624070777  CLST          42          1.0000000000
       126        42  TIP3  H2           10.1703458672       10.2526054575      -11.6559403377  CLST          42          1.0000000000
       127        43  TIP3  OH2          11.9359985379       12.6742538845        7.7672019886  CLST          43          1.0000000000
       128        43  TIP3  H1           12.6055411650       13.2510268035        7.8045099299  CLST          43          1.0000000000
       129        43  TIP3  H2           12.3334220974       11.8566096591        8.1535182952  CLST          43          1.0000000000
       130        44  TIP3  OH2           7.8857940750        0.9992896715        5.9668014456  CLST          44          1.0000000000
       131        44  TIP3  H1            8.1213818056        1.5085864636        6.8146770521  CLST          44          1.0000000000
       132        44  TIP3  H2            7.5251946468        1.8434537961        5.5537910741  CLST          44          1.0000000000
       133        45  TIP3  OH2           7.7966468686        9.5364421575        7.3371938461  CLST          45          1.0000000000
       134        45  TIP3  H1            7.7125627669        8.5896114149        7.6239663213  CLST          45          1.0000000000
       135        45  TIP3  H2            8.7038411154        9.7794425174        7.6689128036  CLST          45          1.0000000000
       136        46  TIP3  OH2          -5.7486634002       -3.2188811904      -13.0619529230  CLST          46          1.0000000000
       137        46  TIP3  H1           -5.3938795741       -4.1392751341      -13.2383495914  CLST          46          1.0000000000
       138        46  TIP3  H2           -4.9818009788       -2.9486903527      -12.5007249545  CLST          46          1.0000000000
       139        47  TIP3  OH2           1.2190684691       -6.6130672895      -11.0065801198  CLST          47          1.0000000000
       140        47  TIP3  H1            1.8463582820       -5.8700171165      -10.8463557846  CLST          47          1.0000000000
       141        47  TIP3  H2            0.9341731224       -6.3466136952      -11.8991957156  CLST          47          1.0000000000
       142        48  TIP3  OH2           5.0522868211        5.6384751908        1.1205426915  CLST          48          1.0000000000
       143        48  TIP3  H1            6.0086883887        5.3296041135        0.8404957569  CLST          48          1.0000000000
       144        48  TIP3  H2            5.2357022852        6.6093177080        1.1094054426  CLST          48          1.0000000000
       145        49  TIP3  OH2          -3.4282235075      -10.4863068461      -13.7712620164  CLST          49          1.0000000000
       146        49  TIP3  H1           -2.5636192231      -10.6530023683      -13.3372329388  CLST          49          1.0000000000
       147        49  TIP3  H2           -3.8647688997      -11.1299623031      -13.1795869794  CLST          49          1.0000000000
       148        50  TIP3  OH2           2.7786608312        3.7805362149        5.9100050988  CLST          50          1.0000000000
       149        50  TIP3  H1            1.9195368136        4.1350531455        6.3012178571  CLST          50          1.0000000000
       150        50  TIP3  H2            2.4713838498        3.6157864436        4.9940833786  CLST          50          1.0000000000
       151        51  TIP3  OH2          -6.5743655641       -9.9469690548       -4.8329433515  CLST          51          1.0000000000
       152        51  TIP3  H1           -6.5086121933       -9.9221523137       -3.8408325892  CLST          51          1.0000000000
       153        51  TIP3  H2           -6.4611667886      -10.9301413902       -4.9588753692  CLST          51          1.0000000000
       154        52  TIP3  OH2           9.2475501447       -5.6749176256       -0.0276902310  CLST          52          1.0000000000
       155        52  TIP3  H1            9.5078117013       -5.6347934009       -1.0463856506  CLST          52          1.0000000000
       156        52  TIP3  H2            9.2858661167       -4.7000415538        0.0403706078  CLST          52          1.0000000000
       157        53  TIP3  OH2          -9.5269375084        9.9703554387      -12.3056751326  CLST          53          1.0000000000
       158        53  TIP3  H1           -9.6324588027       10.0777968960      -13.1449652720  CLST          53          1.0000000000
       159        53  TIP3  H2           -8.7557997119        9.3424174074      -12.5005519178  CLST          53          1.0000000000
       160        54  TIP3  OH2           0.3190716920       -2.9297792056       -9.4553691847  CLST          54          1.0000000000
       161        54  TIP3  H1            1.0295155023       -3.3455298668       -9.9685152002  CLST          54          1.0000000000
       162        54  TIP3  H2           -0.1756868235       -2.3333660000      -10.1196674758  CLST          54          1.0000000000
       163        55  TIP3  OH2           2.9442084920       -4.0312872785      -14.6022996994  CLST          55          1.0000000000
       164        55  TIP3  H1            3.0003350262       -4.9547610427      -14.2751797892  CLST          55          1.0000000000
       165        55  TIP3  H2            3.0904360168       -4.2314598561      -15.5225472006  CLST          55          1.0000000000
       166        56  TIP3  OH2          -9.9614466502       10.9857674771        5.8191866119  CLST          56          1.0000000000
       167        56  TIP3  H1          -10.1458186225       10.1196295983        6.2320451343  CLST          56          1.0000000000
       168        56  TIP3  H2          -10.3049914412       10.8345678033        4.9447386533  CLST          56          1.0000000000
       169        57  TIP3  OH2           1.6590660883      -13.2584390349        0.4589591713  CLST          57          1.0000000000
       170        57  TIP3  H1            1.7529687466      -12.5024006305        1.1020528911  CLST          57          1.0000000000
       171        57  TIP3  H2            2.4862659899      -12.9429631017       -0.0791904709  CLST          57          1.0000000000
       172        58  TIP3  OH2         -12.9662987056       10.6383390997        7.0686356800  CLST          58          1.0000000000
       173        58  TIP3  H1          -12.5036398118       11.4579816462        6.9218927271  CLST          58          1.0000000000
       174        58  TIP3  H2          -12.7172990628       10.4906001194        8.0469239064  CLST          58          1.0000000000
       175        59  TIP3  OH2         -11.6636490154       -2.7291926446        5.4781636160  CLST          59          1.0000000000
       176        59  TIP3  H1          -11.9191127924       -2.5470594174        6.4620434205  CLST          59          1.0000000000
       177        59  TIP3  H2          -11.7707523486       -1.7683716097        5.1830328364  CLST          59          1.0000000000
       178        60  TIP3  OH2           1.1177317731        9.5418298740        8.5668990202  CLST          60          1.0000000000
       179        60  TIP3  H1            0.4134963877        8.9512334627        8.2000247931  CLST          60          1.0000000000
       180        60  TIP3  H2            1.7520809781        8.7687024703        8.8018242584  CLST          60          1.0000000000
       181        61  TIP3  OH2           2.8248059190       -0.6662414957       -5.5278789617  CLST          61          1.0000000000
       182        61  TIP3  H1            3.3517695911       -1.4994375814       -5.3107159099  CLST          61          1.0000000000
       183        61  TIP3  H2            2.1054771366       -0.9522204996       -6.1247696870  CLST          61          1.0000000000
       184        62  TIP3  OH2           7.8803434886        8.5986633417       12.5274347562  CLST          62          1.0000000000
       185        62  TIP3  H1            8.0140173038        7.8200623955       11.9583254533  CLST          62          1.0000000000
       186        62  TIP3  H2            8.0869406182        9.3140920431       11.8848993087  CLST          62          1.0000000000
       187        63  TIP3  OH2           4.6729998374       -7.1398719750      -10.3232288271  CLST          63          1.0000000000
       188        63  TIP3  H1            3.8616758039       -7.4281112892      -10.7898142817  CLST          63          1.0000000000
       189        63  TIP3  H2            5.3188044074       -7.4794764224      -10.9555414044  CLST          63          1.0000000000
       190        64  TIP3  OH2          -2.4288200395       11.6084216547        5.3279986562  CLST          64          1.0000000000
       191        64  TIP3  H1           -2.2999100804       10.5931559670        5.3374408660  CLST          64          1.0000000000
       192        64  TIP3  H2           -1.8034092754       11.6799549215        6.1371359692  CLST          64          1.0000000000
       193        65  TIP3  OH2          10.8018229694       -4.3682330141       -5.3769052456  CLST          65          1.0000000000
       194        65  TIP3  H1           11.1780817896       -4.0998377023       -6.3057710893  CLST          65          1.0000000000
       195        65  TIP3  H2           10.7875968188       -3.3513743355       -5.0257914232  CLST          65          1.0000000000
       196        66  TIP3  OH2           6.4916468172       -9.9004956877        9.4229881662  CLST          66          1.0000000000
       197        66  TIP3  H1            5.7811542312       -9.9003071092        8.7042065242  CLST          66          1.0000000000
       198        66  TIP3  H2            7.0356622131       -9.1778540433        9.0156231371  CLST          66          1.0000000000
       199        67  TIP3  OH2         -11.4182135822       -7.4880162076       -3.9426944601  CLST          67          1.0000000000
       200        67  TIP3  H1          -10.4794925008       -7.1511809980       -4.2874095131  CLST          67          1.0000000000
       201        67  TIP3  H2          -11.7516338783       -7.6873751344       -4.7790394994  CLST          67          1.0000000000
       202        68  TIP3  OH2          -0.7277144981       -5.4939737537        5.4389691593  CLST          68          1.0000000000
       203        68  TIP3  H1            0.2292746317       -5.4773327198        5.7346121251  CLST          68          1.0000000000
       204        68  TIP3  H2           -1.1112765684       -5.4365957985        6.3576538276  CLST          68          1.0000000000
       205        69  TIP3  OH2           7.7798709589       11.5080311400       -8.6985123182  CLST          69          1.0000000000
       206        69  TIP3  H1            8.1142620695       11.1254479052       -9.5734361859  CLST          69          1.0000000000
       207        69  TIP3  H2            8.6912970069       11.5601887483       -8.2828550669  CLST          69          1.0000000000
       208        70  TIP3  OH2          -1.0592267276      -12.2481050901       -0.5656908831  CLST          70          1.0000000000
       209        70  TIP3  H1           -0.0998771452      -12.0407005619       -0.6318021684  CLST          70          1.0000000000
       210        70  TIP3  H2           -0.9744233076      -12.5861143627        0.3667921759  CLST          70          1.0000000000
       211        71  TIP3  OH2         -10.1754521307       -7.4235093605        2.0091397835  CLST          71          1.0000000000
       212        71  TIP3  H1          -10.8723580750       -6.8412559186        2.3418995395  CLST          71          1.0000000000
       213        71  TIP3  H2          -10.7447189019       -8.0043037175        1.4321761077  CLST          71          1.0000000000
       214        72  TIP3  OH2           0.2479907981        1.9672640439       -1.5064222263  CLST          72          1.0000000000
       215        72  TIP3  H1           -0.0620771742        1.0516317813       -1.6181346877  CLST          72          1.0000000000
       216        72  TIP3  H2            1.1734868058        1.8941670129       -1.8146940547  CLST          72          1.0000000000
       217        73  TIP3  OH2          -9.6187738846       13.0340893604        7.5417242001  CLST          73          1.0000000000
       218        73  TIP3  H1           -9.8560808977       12.1931343616        6.9510931413  CLST          73          1.0000000000
       219        73  TIP3  H2           -9.9280294393       13.6728801371        6.8520058841  CLST          73          1.0000000000
       220        74  TIP3  OH2           6.5904682256       -2.7193528716       -3.6192319080  CLST          74          1.0000000000
       221        74  TIP3  H1            6.8755072561       -3.6651488101       -3.8496935174  CLST          74          1.0000000000
       222        74  TIP3  H2            7.4844476149       -2.3082621821       -3.4228358253  CLST          74          1.0000000000
       223        75  TIP3  OH2           2.8297223108      -13.3298059718       -6.7243494975  CLST          75          1.0000000000
       224        75  TIP3  H1            3.0807696221      -12.4209525935       -6.3974742546  CLST          75          1.0000000000
       225        75  TIP3  H2            2.9103708738      -13.7598782984       -5.7897074665  CLST          75          1.0000000000
       226        76  TIP3  OH2           3.9856353823       -9.7944463777        1.1319388382  CLST          76          1.0000000000
       227        76  TIP3  H1            3.8378571713       -8.8647384032        1.4515251670  CLST          76          1.0000000000
       228        76  TIP3  H2            3.1648847344      -10.1858919873        1.5186362211  CLST          76          1.0000000000
       229        77  TIP3  OH2          10.3071855290       -8.2371585620       -2.4599071017  CLST          77          1.0000000000
       230        77  TIP3  H1            9.7780973099       -9.0865314622       -2.5543821745  CLST          77          1.0000000000
       231        77  TIP3  H2           10.5091423880       -8.0992526877       -3.4359329743  CLST          77          1.0000000000
       232        78  TIP3  OH2          10.6737464730       11.7508201117       -7.8217579309  CLST          78          1.0000000000
       233        78  TIP3  H1           11.1288146059       10.9808163441       -8.2322668713  CLST          78          1.0000000000
       234        78  TIP3  H2           11.3345016839       12.3451356298       -7.6975716030  CLST          78          1.0000000000
       235        79  TIP3  OH2          12.7817404933        0.8582869354        0.9834803350  CLST          79          1.0000000000
       236        79  TIP3  H1           13.0128646605        0.5838745842        1.8596835223  CLST          79          1.0000000000
       237        79  TIP3  H2           11.9951227068        1.4324858697        1.1323346962  CLST          79          1.0000000000
       238        80  TIP3  OH2          -7.6554330005        0.1315335960        6.5600899872  CLST          80          1.0000000000
       239        80  TIP3  H1           -7.7231295812        0.1835276531        5.5968502984  CLST          80          1.0000000000
       240        80  TIP3  H2           -6.7075359943        0.0831694674        6.6424746968  CLST          80          1.0000000000
       241        81  TIP3  OH2          -7.4508374067      -10.9180728659        2.0942143414  CLST          81          1.0000000000
       242        81  TIP3  H1           -6.7241696099      -11.0937077652        1.4418506961  CLST          81          1.0000000000
       243        81  TIP3  H2           -7.0617021195      -11.2402031208        2.9225806101  CLST          81          1.0000000000
       244        82  TIP3  OH2          -1.5989380011       -9.8821184220       -6.5723851696  CLST          82          1.0000000000
       245        82  TIP3  H1           -2.5926277194       -9.9972187429       -6.5022505952  CLST          82          1.0000000000
       246        82  TIP3  H2           -1.3156343507      -10.5410179438       -5.9013618655  CLST          82          1.0000000000
       247        83  TIP3  OH2          12.2150539812       -8.6753823975        1.7303398904  CLST          83          1.0000000000
       248        83  TIP3  H1           12.3895180237       -7.9752109583        2.4147293524  CLST          83          1.0000000000
       249        83  TIP3  H2           11.2436392473       -8.4396466517        1.6181343787  CLST          83          1.0000000000
       250        84  TIP3  OH2          -3.5944760851       10.9264109523       -2.0749402970  CLST          84          1.0000000000
       251        84  TIP3  H1           -4.5798598483       10.8100132782       -2.4744610871  CLST          84          1.0000000000
       252        84  TIP3  H2           -3.5791733281       11.7662493403       -1.7720765331  CLST          84          1.0000000000
       253        85  TIP3  OH2           5.7325263167       -2.1724068545        0.0272336607  CLST          85          1.0000000000
       254        85  TIP3  H1            5.9304764387       -1.5567107642        0.7682135350  CLST          85          1.0000000000
       255        85  TIP3  H2            6.3524642881       -2.9106219103        0.2107722632  CLST          85          1.0000000000
       256        86  TIP3  OH2           6.7078960274       -8.3616836045        5.8748226302  CLST          86          1.0000000000
       257        86  TIP3  H1            5.8416967816       -8.4293051788        6.3672616925  CLST          86          1.0000000000
       258        86  TIP3  H2            6.6568062377       -7.3806784895        5.6959111982  CLST          86          1.0000000000
       259        87  TIP3  OH2          -1.3955979891       -3.7660735888       10.7587938784  CLST          87          1.0000000000
       260        87  TIP3  H1           -0.6542359363       -3.6640917545       12.0206610106  CLST          87          1.0000000000
       261        87  TIP3  H2           -2.3957998165       -4.7890212765       11.3736901671  CLST          87          1.0000000000
       262        88  TIP3  OH2          -0.6944936471        4.5772174543       -8.0508561658  CLST          88          1.0000000000
       263        88  TIP3  H1           -0.7764626156        3.6037711057       -7.9500688730  CLST          88          1.0000000000
       264        88  TIP3  H2           -1.6435185054        4.7322650207       -8.1279747522  CLST          88          1.0000000000
       265        89  TIP3  OH2           3.3473345922        0.9298467173      -11.4834204922  CLST          89          1.0000000000
       266        89  TIP3  H1            3.5160595050        1.6119259256      -12.1397887555  CLST          89          1.0000000000
       267        89  TIP3  H2            3.0564274376        0.2705775265      -12.1287159249  CLST          89          1.0000000000
       268        90  TIP3  OH2           5.5958193656       11.2339694471       -5.2942502460  CLST          90          1.0000000000
       269        90  TIP3  H1            5.2802543355       11.9666480959       -4.7213827053  CLST          90          1.0000000000
       270        90  TIP3  H2            5.6383769834       11.7158306984       -6.2303442286  CLST          90          1.0000000000
       271        91  TIP3  OH2           6.2480167001       -8.0298817598      -12.2098822112  CLST          91          1.0000000000
       272        91  TIP3  H1            6.5120615416       -9.0142326193      -12.1903677122  CLST          91          1.0000000000
       273        91  TIP3  H2            7.1044848807       -7.6214183472      -11.9011252737  CLST          91          1.0000000000
       274        92  TIP3  OH2           9.9607310536       11.4751089524        2.5947132889  CLST          92          1.0000000000
       275        92  TIP3  H1           10.3348278256       11.4564666125        3.5056938142  CLST          92          1.0000000000
       276        92  TIP3  H2            9.7428554068       12.4249800564        2.5822376460  CLST          92          1.0000000000
       277        93  TIP3  OH2          -8.6619317857        7.3381831436        2.6761650963  CLST          93          1.0000000000
       278        93  TIP3  H1           -8.3585947888        8.2543537208        2.5620076736  CLST          93          1.0000000000
       279        93  TIP3  H2           -7.9029950764        6.9573951858        3.2053286210  CLST          93          1.0000000000
       280        94  TIP3  OH2         -14.1643208219        6.4456302702        6.4119537203  CLST          94          1.0000000000
       281        94  TIP3  H1          -13.4729300899        7.1375521329        6.2528869860  CLST          94          1.0000000000
       282        94  TIP3  H2          -14.4059980543        6.3468129838        5.4447556375  CLST          94          1.0000000000
       283        95  TIP3  OH2           9.8084421198        5.7533526273       -1.8324602649  CLST          95          1.0000000000
       284        95  TIP3  H1            9.8158100595        5.9965606475       -0.8774725598  CLST          95          1.0000000000
       285        95  TIP3  H2           10.1113356107        4.8142381718       -1.6769058125  CLST          95          1.0000000000
       286        96  TIP3  OH2           9.8096136037      -11.0769992530       11.2511896479  CLST          96          1.0000000000
       287        96  TIP3  H1           10.5828401063      -11.3390741888       10.7278916007  CLST          96          1.0000000000
       288        96  TIP3  H2            9.3033039798      -11.8701044593       11.3358704041  CLST          96          1.0000000000
       289        97  TIP3  OH2          -7.6264506321        6.9052321972        8.4117890662  CLST          97          1.0000000000
       290        97  TIP3  H1           -7.2497446232        6.0092522315        8.7440221013  CLST          97          1.0000000000
       291        97  TIP3  H2           -8.5524962601        6.4965897145        8.2497884802  CLST          97          1.0000000000
       292        98  TIP3  OH2           5.9743918442        0.7500073881       -3.3987953982  CLST          98          1.0000000000
       293        98  TIP3  H1            6.6780608708        0.5056043233       -2.7756245352  CLST          98          1.0000000000
       294        98  TIP3  H2            5.3037715696        0.1130841015       -3.0102934188  CLST          98          1.0000000000
       295        99  TIP3  OH2          -6.7813058093      -11.5701458609        4.8009069836  CLST          99          1.0000000000
       296        99  TIP3  H1           -6.9565538145      -11.2727290168        5.7285345255  CLST          99          1.0000000000
       297        99  TIP3  H2           -6.0364096165      -12.1777964663        5.1503444794  CLST          99          1.0000000000
       298       100  TIP3  OH2           2.3349899162        0.4717293374       -9.1129278657  CLST         100          1.0000000000
       299       100  TIP3  H1            2.7969945881        0.6494667255      -10.0044338332  CLST         100          1.0000000000
       300       100  TIP3  H2            2.4150217439        1.3229625894       -8.6654046615  CLST         100          1.0000000000
       301       101  TIP3  OH2          12.6307449730       -6.9386684475        3.8437044846  CLST         101          1.0000000000
       302       101  TIP3  H1           12.7420080415       -7.5003029860        4.6603241797  CLST         101          1.0000000000
       303       101  TIP3  H2           13.4740242370       -6.5009613367        3.8300442075  CLST         101          1.0000000000
       304       102  TIP3  OH2         -12.1962802087       10.3505966662        1.3296199029  CLST         102          1.0000000000
       305       102  TIP3  H1          -12.8566917899       10.2008588107        2.1094244210  CLST         102          1.0000000000
       306       102  TIP3  H2          -12.6093067601        9.9283044412        0.7102093457  CLST         102          1.0000000000
       307       103  TIP3  OH2          -0.8050206192       -9.1865260236        8.0294189131  CLST         103          1.0000000000
       308       103  TIP3  H1            0.1003039298       -9.8272139916        9.3063831467  CLST         103          1.0000000000
       309       103  TIP3  H2           -1.1967785854      -10.6058145225        8.6571579260  CLST         103          1.0000000000
       310       104  TIP3  OH2          -4.3819787547      -12.0998109320        9.8156378155  CLST         104          1.0000000000
       311       104  TIP3  H1           -5.1260249478      -11.7857797562       10.5939629156  CLST         104          1.0000000000
       312       104  TIP3  H2           -5.0700173376      -12.3423057926        9.1147320292  CLST         104          1.0000000000
       313       105  TIP3  OH2          -5.3098688751       10.6138152629      -11.5700731306  CLST         105          1.0000000000
       314       105  TIP3  H1           -4.7347582745       11.2446821305      -12.4227582117  CLST         105          1.0000000000
       315       105  TIP3  H2           -5.7741192128       10.0868359571      -12.0571259464  CLST         105          1.0000000000
       316       106  TIP3  OH2           7.3899957144       -8.1133913961       -1.3384997950  CLST         106          1.0000000000
       317       106  TIP3  H1            8.2371518687       -7.6986090741       -1.5965662871  CLST         106          1.0000000000
       318       106  TIP3  H2            7.6762655007       -9.0451840616       -1.4375869736  CLST         106          1.0000000000
       319       107  TIP3  OH2          -8.3474922881       -4.7424773202        5.1566004745  CLST         107          1.0000000000
       320       107  TIP3  H1           -9.0771967364       -4.3603060065        4.6318838997  CLST         107          1.0000000000
       321       107  TIP3  H2           -7.5759961859       -4.2048917909        4.9447677089  CLST         107          1.0000000000
       322       108  TIP3  OH2         -10.5051816405        2.0277610043        9.3470263999  CLST         108          1.0000000000
       323       108  TIP3  H1           -9.5148531301        1.9036435309        9.2397217846  CLST         108          1.0000000000
       324       108  TIP3  H2          -10.7961612420        1.0934787009        9.7101004885  CLST         108          1.0000000000
       325       109  TIP3  OH2           2.4074088954        7.0814114497        8.7955519663  CLST         109          1.0000000000
       326       109  TIP3  H1            1.6663370232        6.5570854738        9.0961078430  CLST         109          1.0000000000
       327       109  TIP3  H2            3.1583081748        6.4696555217        8.8118307923  CLST         109          1.0000000000
       328       110  TIP3  OH2           1.6122753491       12.3141621944      -11.1348795163  CLST         110          1.0000000000
       329       110  TIP3  H1            2.3260037052       12.8899866379      -10.9563058612  CLST         110          1.0000000000
       330       110  TIP3  H2            1.2383883336       12.2540419145      -10.2141919704  CLST         110          1.0000000000
       331       111  TIP3  OH2          11.7087091723      -11.6534292074        9.4063929456  CLST         111          1.0000000000
       332       111  TIP3  H1           12.5939140202      -12.0024851378        9.5164604027  CLST         111          1.0000000000
       333       111  TIP3  H2           11.2711287186      -12.2648017843        8.7349064812  CLST         111          1.0000000000
       334       112  TIP3  OH2           6.5031848832       -0.0711287696        1.6383220392  CLST         112          1.0000000000
       335       112  TIP3  H1            6.9342371591        0.8600720747        1.6906363882  CLST         112          1.0000000000
       336       112  TIP3  H2            6.5026207288       -0.2057671439        2.6289990121  CLST         112          1.0000000000
       337       113  TIP3  OH2         -13.0118710757        0.8994836361       -0.0752522665  CLST         113          1.0000000000
       338       113  TIP3  H1          -13.6521330707        0.0896739065       -0.2297473076  CLST         113          1.0000000000
       339       113  TIP3  H2          -12.5085654644        0.7385047327       -0.9201008491  CLST         113          1.0000000000
       340       114  TIP3  OH2         -14.0430078298        3.6034652215       -0.4674121298  CLST         114          1.0000000000
       341       114  TIP3  H1          -13.7181284049        2.6903718443       -0.2656145002  CLST         114          1.0000000000
       342       114  TIP3  H2          -13.3902719795        3.6729815307       -1.2691046578  CLST         114          1.0000000000
       343       115  TIP3  OH2          -8.9853453040        0.1898661748      -10.7928219465  CLST         115          1.0000000000
       344       115  TIP3  H1           -8.0579880519        0.2641094136      -11.1862177230  CLST         115          1.0000000000
       345       115  TIP3  H2           -9.0775318997        1.1887735565      -10.8277632719  CLST         115          1.0000000000
       346       116  TIP3  OH2           6.8750195794       -5.6528539506        2.1085022233  CLST         116          1.0000000000
       347       116  TIP3  H1            7.5101006332       -5.9807593728        1.4215005374  CLST         116          1.0000000000
       348       116  TIP3  H2            7.1205550644       -4.7149701201        2.1505635483  CLST         116          1.0000000000
       349       117  TIP3  OH2          -0.7421698660        0.0120427553       12.2652135647  CLST         117          1.0000000000
       350       117  TIP3  H1           -0.2705245436       -0.7714802055       12.6648878752  CLST         117          1.0000000000
       351       117  TIP3  H2           -0.0855089900        0.6674540167       12.7693720357  CLST         117          1.0000000000
       352       118  TIP3  OH2           0.2749291814       -9.5797668462        5.0020663468  CLST         118          1.0000000000
       353       118  TIP3  H1           -0.2376982300       -9.2476126988        5.7809539614  CLST         118          1.0000000000
       354       118  TIP3  H2            0.0134189083       -8.8238201152        4.4142477515  CLST         118          1.0000000000
       355       119  TIP3  OH2          -9.3181001822      -10.4765798992       -8.6933573271  CLST         119          1.0000000000
       356       119  TIP3  H1           -9.7232056725      -10.7697072234       -9.5991246216  CLST         119          1.0000000000
       357       119  TIP3  H2           -8.9580259813       -9.7167288613       -9.1258545490  CLST         119          1.0000000000
       358       120  TIP3  OH2           9.5329607588       -7.7634615675        1.3062456286  CLST         120          1.0000000000
       359       120  TIP3  H1            8.7683600411       -8.3205464750        1.0825236716  CLST         120          1.0000000000
       360       120  TIP3  H2            9.3882741269       -7.0293415431        0.6738983092  CLST         120          1.0000000000
       361       121  TIP3  OH2          -5.6507732513       -0.2163360984       -8.2113114126  CLST         121          1.0000000000
       362       121  TIP3  H1           -5.6685152227        0.1360786497       -9.1579914585  CLST         121          1.0000000000
       363       121  TIP3  H2           -4.9163987622       -0.8581048068       -8.2940164893  CLST         121          1.0000000000
       364       122  TIP3  OH2          10.4275903589       12.0016134652        5.2097815550  CLST         122          1.0000000000
       365       122  TIP3  H1            9.5089794199       12.4564100336        5.3147794643  CLST         122          1.0000000000
       366       122  TIP3  H2           10.9554680365       12.5363105145        5.8565770594  CLST         122          1.0000000000
       367       123  TIP3  OH2          -7.4197480120       -5.5555567590      -11.2358590243  CLST         123          1.0000000000
       368       123  TIP3  H1           -6.7722083200       -6.0603990148      -11.7560942596  CLST         123          1.0000000000
       369       123  TIP3  H2           -7.0420149412       -5.6552192930      -10.3341412519  CLST         123          1.0000000000
       370       124  TIP3  OH2          -6.0560107947       -8.6690593898      -10.5694084764  CLST         124          1.0000000000
       371       124  TIP3  H1           -5.2430100971       -9.0216480967      -10.1524948836  CLST         124          1.0000000000
       372       124  TIP3  H2           -6.5132898159       -8.2441452167       -9.8021653158  CLST         124          1.0000000000
       373       125  TIP3  OH2         -13.3951623878        4.3004582140        8.1307443106  CLST         125          1.0000000000
       374       125  TIP3  H1          -13.0149885260        3.6318980625        7.5698712440  CLST         125          1.0000000000
       375       125  TIP3  H2          -13.6580933319        5.0215682051        7.4521067093  CLST         125          1.0000000000
       376       126  TIP3  OH2          -7.0037530297      -10.5899775552      -12.0342619416  CLST         126          1.0000000000
       377       126  TIP3  H1           -6.0952988041      -11.1400987680      -11.8822036142  CLST         126          1.0000000000
       378       126  TIP3  H2           -6.5228971109       -9.7459562850      -11.7979374802  CLST         126          1.0000000000
       379       127  TIP3  OH2          -7.3003302171      -11.6170856386       -7.1507485947  CLST         127          1.0000000000
       380       127  TIP3  H1           -7.9646815311      -12.3109369682       -6.9468738681  CLST         127          1.0000000000
       381       127  TIP3  H2           -7.8729793262      -11.1717222331       -7.8164763045  CLST         127          1.0000000000
       382       128  TIP3  OH2           9.9372617879        0.9077900661       -2.3615693524  CLST         128          1.0000000000
       383       128  TIP3  H1            9.1685879677        0.4168488119       -2.0258093241  CLST         128          1.0000000000
       384       128  TIP3  H2            9.5673416362        1.5666901249       -3.0136127581  CLST         128          1.0000000000
       385       129  TIP3  OH2          -7.7759067229        9.6686274177        1.0265296655  CLST         129          1.0000000000
       386       129  TIP3  H1           -6.9646348742       10.1376247410        1.3443357606  CLST         129          1.0000000000
       387       129  TIP3  H2           -7.2979003010        8.8925471563        0.5545006649  CLST         129          1.0000000000
       388       130  TIP3  OH2          -4.0565589462        4.1149379850        9.8595708401  CLST         130          1.0000000000
       389       130  TIP3  H1           -3.5449415942        4.9552816604       10.1319073860  CLST         130          1.0000000000
       390       130  TIP3  H2           -3.7591462618        3.5780078403       10.6827143441  CLST         130          1.0000000000
       391       131  TIP3  OH2           7.8847848909       -3.7972497742       -9.7992955783  CLST         131          1.0000000000
       392       131  TIP3  H1            7.8801991800       -2.9505233966       -9.2361140027  CLST         131          1.0000000000
       393       131  TIP3  H2            6.9433280545       -4.0290804791       -9.5851094025  CLST         131          1.0000000000
       394       132  TIP3  OH2         -11.4176010827       11.4878866014       12.3860230129  CLST         132          1.0000000000
       395       132  TIP3  H1          -10.8890129436       12.0340666661       11.6875724078  CLST         132          1.0000000000
       396       132  TIP3  H2          -12.1470709927       11.7786032992       12.7046349314  CLST         132          1.0000000000
       397       133  TIP3  OH2          10.4174155673        9.2919366058        8.5593826293  CLST         133          1.0000000000
       398       133  TIP3  H1           10.5121093879        8.9079149806        9.4878776750  CLST         133          1.0000000000
       399       133  TIP3  H2           11.3278705011        9.6564535471        8.5224002986  CLST         133          1.0000000000
       400       134  TIP3  OH2          -7.6237232735        5.8815903940       -6.0835258014  CLST         134          1.0000000000
       401       134  TIP3  H1           -8.5116560623        6.1578710606       -5.8442018753  CLST         134          1.0000000000
       402       134  TIP3  H2           -7.3270120057        5.6651174859       -5.1414413912  CLST         134          1.0000000000
       403       135  TIP3  OH2          10.8678010523      -11.1880748103      -13.0037520618  CLST         135          1.0000000000
       404       135  TIP3  H1           10.8839909656      -10.3130296006      -12.4436803438  CLST         135          1.0000000000
       405       135  TIP3  H2           11.2211985895      -11.0445687601      -13.7533325506  CLST         135          1.0000000000
       406       136  TIP3  OH2          -4.3335884561        1.7575646858       -7.1239879529  CLST         136          1.0000000000
       407       136  TIP3  H1           -4.8072823601        0.9559435042       -7.4859430231  CLST         136          1.0000000000
       408       136  TIP3  H2           -5.0890641002        2.3222266968       -6.8603575122  CLST         136          1.0000000000
       409       137  TIP3  OH2          12.8199942837       10.2285107143        8.9608566682  CLST         137          1.0000000000
       410       137  TIP3  H1           13.1967226274       10.0550171406        9.8438635668  CLST         137          1.0000000000
       411       137  TIP3  H2           13.4349176114        9.6117472314        8.4600689117  CLST         137          1.0000000000
       412       138  TIP3  OH2          -0.8621534519       -9.8221158852        1.5619544344  CLST         138          1.0000000000
       413       138  TIP3  H1           -0.8472483857       -9.3428141078        0.7340712900  CLST         138          1.0000000000
       414       138  TIP3  H2           -0.9456620101       -9.0842015037        2.1965369777  CLST         138          1.0000000000
       415       139  TIP3  OH2          -9.4257263330      -10.8647555770        4.6116435822  CLST         139          1.0000000000
       416       139  TIP3  H1           -9.8281608374      -10.9915260615        3.7222364894  CLST         139          1.0000000000
       417       139  TIP3  H2           -8.5671704515      -11.2804370246        4.5212692527  CLST         139          1.0000000000
       418       140  TIP3  OH2          -7.0970162918        3.4709801113       -0.3596700194  CLST         140          1.0000000000
       419       140  TIP3  H1           -6.2093285770        3.9070404169       -0.1609224951  CLST         140          1.0000000000
       420       140  TIP3  H2           -7.6821955012        4.1619958898       -0.6648443650  CLST         140          1.0000000000
       421       141  TIP3  OH2           2.0589706868       -4.4633378853       -3.5815536524  CLST         141          1.0000000000
       422       141  TIP3  H1            1.8670113050       -3.5472026200       -3.3207921273  CLST         141          1.0000000000
       423       141  TIP3  H2            2.8093486367       -4.1268329365       -4.1561029657  CLST         141          1.0000000000
       424       142  TIP3  OH2         -11.7686383065        0.0071541819        4.9160920068  CLST         142          1.0000000000
       425       142  TIP3  H1          -11.6000294491        0.5947426703        5.6626214673  CLST         142          1.0000000000
       426       142  TIP3  H2          -12.5124638435        0.4099528650        4.4300528835  CLST         142          1.0000000000
       427       143  TIP3  OH2           9.4359940505       -5.7315045623       -8.3391924538  CLST         143          1.0000000000
       428       143  TIP3  H1            9.6356084585       -5.0019652998       -8.9468517164  CLST         143          1.0000000000
       429       143  TIP3  H2           10.1253714940       -6.4074793977       -8.5909926137  CLST         143          1.0000000000
       430       144  TIP3  OH2           3.3083069695       -2.7866226793        8.9635798080  CLST         144          1.0000000000
       431       144  TIP3  H1            2.3435239653       -2.5792294822        9.1407540660  CLST         144          1.0000000000
       432       144  TIP3  H2            3.6507467190       -1.9326248006        8.5693595145  CLST         144          1.0000000000
       433       145  TIP3  OH2         -10.1339741292       13.2270661703        3.1727138050  CLST         145          1.0000000000
       434       145  TIP3  H1          -10.4929027252       13.3137098225        2.2045995088  CLST         145          1.0000000000
       435       145  TIP3  H2           -9.9847100659       12.2327108634        3.0761614956  CLST         145          1.0000000000
       436       146  TIP3  OH2           9.2176577207        2.6295526862       -4.1680508883  CLST         146          1.0000000000
       437       146  TIP3  H1            9.1908815040        3.6339255684       -4.2114096314  CLST         146          1.0000000000
       438       146  TIP3  H2            8.4573685280        2.4051524764       -4.7665788044  CLST         146          1.0000000000
       439       147  TIP3  OH2         -11.0244795477       -0.4009931005       -4.2972130202  CLST         147          1.0000000000
       440       147  TIP3  H1          -10.0764087922       -0.6324928792       -4.4530017206  CLST         147          1.0000000000
       441       147  TIP3  H2          -11.3488579693       -0.8947983258       -5.1293621517  CLST         147          1.0000000000
       442       148  TIP3  OH2          -7.9079348258        1.3082398942        8.8987382827  CLST         148          1.0000000000
       443       148  TIP3  H1           -7.8695282809        0.9415510810        7.9658743052  CLST         148          1.0000000000
       444       148  TIP3  H2           -6.9248964117        1.5162199964        8.9780772995  CLST         148          1.0000000000
       445       149  TIP3  OH2           8.7180995187       -2.8694544131        0.8785483656  CLST         149          1.0000000000
       446       149  TIP3  H1            9.2997454621       -2.0900182148        0.6573601758  CLST         149          1.0000000000
       447       149  TIP3  H2            8.3551401142       -2.6537623867        1.7524850033  CLST         149          1.0000000000
       448       150  TIP3  OH2          -2.0274753926      -11.4184474155        8.5949214023  CLST         150          1.0000000000
       449       150  TIP3  H1           -3.0645732162      -11.4767492002        8.8222237804  CLST         150          1.0000000000
       450       150  TIP3  H2           -1.7725776689      -12.2892375571        9.0753770714  CLST         150          1.0000000000
       451       151  TIP3  OH2          -9.2383151903       -6.5400205332       -4.9060229886  CLST         151          1.0000000000
       452       151  TIP3  H1           -8.3736883298       -6.4984320722       -4.4408805765  CLST         151          1.0000000000
       453       151  TIP3  H2           -9.0189900153       -7.3704853504       -5.4170051962  CLST         151          1.0000000000
       454       152  TIP3  OH2           3.7919723574       -2.1335843452        5.0882314559  CLST         152          1.0000000000
       455       152  TIP3  H1            4.2798515973       -2.8504043413        5.5095344376  CLST         152          1.0000000000
       456       152  TIP3  H2            3.5084619216       -2.6261537772        4.2983665427  CLST         152          1.0000000000
       457       153  TIP3  OH2          -2.5846279707        4.7545488228      -14.2477177739  CLST         153          1.0000000000
       458       153  TIP3  H1           -1.7179453043        4.8622062822      -14.6664364632  CLST         153          1.0000000000
       459       153  TIP3  H2           -2.1829097606        4.6238945160      -13.3760902662  CLST         153          1.0000000000
       460       154  TIP3  OH2           4.4419373503       -6.8930212472        2.2442496115  CLST         154          1.0000000000
       461       154  TIP3  H1            5.3689094663       -6.5142385606        2.1149099679  CLST         154          1.0000000000
       462       154  TIP3  H2            3.9017098652       -6.4548573972        1.5318676957  CLST         154          1.0000000000
       463       155  TIP3  OH2           9.4138032812       -2.6165119184       10.0413830465  CLST         155          1.0000000000
       464       155  TIP3  H1            8.7239255992       -3.0600822396        9.4087312530  CLST         155          1.0000000000
       465       155  TIP3  H2            9.7680155718       -3.4249157812       10.4023117492  CLST         155          1.0000000000
       466       156  TIP3  OH2          -1.8672505711       11.3072288783       11.5632232616  CLST         156          1.0000000000
       467       156  TIP3  H1           -2.6064747561       11.9341007334       11.6097170861  CLST         156          1.0000000000
       468       156  TIP3  H2           -2.2840378260       10.5708058401       11.0655622589  CLST         156          1.0000000000
       469       157  TIP3  OH2           3.8591497579       -0.7446118079        7.3117451766  CLST         157          1.0000000000
       470       157  TIP3  H1            4.8585057243       -0.6372117478        7.4587834985  CLST         157          1.0000000000
       471       157  TIP3  H2            3.7340451622       -1.2972098461        6.4766682185  CLST         157          1.0000000000
       472       158  TIP3  OH2          10.6296978887        9.1467908476       13.1889145042  CLST         158          1.0000000000
       473       158  TIP3  H1            9.9359247996        8.6011648710       13.5391178916  CLST         158          1.0000000000
       474       158  TIP3  H2           10.1030538851        9.8647070379       12.7969749686  CLST         158          1.0000000000
       475       159  TIP3  OH2           0.4709871857      -12.0972682975        4.4522717411  CLST         159          1.0000000000
       476       159  TIP3  H1           -0.3089568735      -12.2986670739        5.0713966339  CLST         159          1.0000000000
       477       159  TIP3  H2            0.4968213116      -11.1335250357        4.7338518972  CLST         159          1.0000000000
       478       160  TIP3  OH2           7.3778006572       -3.3120297285        8.4187832216  CLST         160          1.0000000000
       479       160  TIP3  H1            6.9919805993       -3.5665712916        7.5288652408  CLST         160          1.0000000000
       480       160  TIP3  H2            7.0470734393       -2.3497128829        8.4208770759  CLST         160          1.0000000000
       481       161  TIP3  OH2          -2.3968836836       -2.4583980996        7.8508431277  CLST         161          1.0000000000
       482       161  TIP3  H1           -2.0373843734       -1.9084782233        8.5301601578  CLST         161          1.0000000000
       483       161  TIP3  H2           -3.3318261549       -2.5575992955        8.2302935373  CLST         161          1.0000000000
       484       162  TIP3  OH2          -0.6776838672        3.5818124930      -10.7286241104  CLST         162          1.0000000000
       485       162  TIP3  H1           -0.5339783155        4.1822112131      -11.5010154833  CLST         162          1.0000000000
       486       162  TIP3  H2           -0.3631143656        4.1485220948      -10.0447928104  CLST         162          1.0000000000
       487       163  TIP3  OH2         -10.0303227621        9.0751351015       11.1068244138  CLST         163          1.0000000000
       488       163  TIP3  H1          -10.6671315830        8.3277081586       11.3124962482  CLST         163          1.0000000000
       489       163  TIP3  H2          -10.3330188409        9.7425847999       11.7370244817  CLST         163          1.0000000000
       490       164  TIP3  OH2           4.0456382760      -10.3724943442       13.0154526942  CLST         164          1.0000000000
       491       164  TIP3  H1            4.7974919188       -9.7449718285       12.6634617788  CLST         164          1.0000000000
       492       164  TIP3  H2            4.6509123077      -11.1406741134       13.0209765082  CLST         164          1.0000000000
       493       165  TIP3  OH2         -12.0038559387       -5.6922736243        3.7238565023  CLST         165          1.0000000000
       494       165  TIP3  H1          -11.8435826422       -5.8021395060        4.7267809583  CLST         165          1.0000000000
       495       165  TIP3  H2          -12.8634697998       -5.5772333490        3.5619131851  CLST         165          1.0000000000
       496       166  TIP3  OH2          -1.5039341304       -6.3039242114      -10.5271940872  CLST         166          1.0000000000
       497       166  TIP3  H1           -0.5740015688       -6.5925061951      -10.3887118295  CLST         166          1.0000000000
       498       166  TIP3  H2           -2.0834502824       -7.0678093203      -10.4898146449  CLST         166          1.0000000000
       499       167  TIP3  OH2           8.1074122473       10.6734100473       -1.0013552582  CLST         167          1.0000000000
       500       167  TIP3  H1            8.5026263025       10.2013952384       -0.2369725225  CLST         167          1.0000000000
       501       167  TIP3  H2            8.4245336972       10.0257455688       -1.7000956235  CLST         167          1.0000000000
       502       168  TIP3  OH2          -0.6526960903      -13.3393129717        2.1954786903  CLST         168          1.0000000000
       503       168  TIP3  H1           -0.1984684711      -13.0584580712        3.0059515106  CLST         168          1.0000000000
       504       168  TIP3  H2            0.0145181733      -13.9113863588        1.8345763747  CLST         168          1.0000000000
       505       169  TIP3  OH2           5.0567638290        4.1185470844        3.2179790044  CLST         169          1.0000000000
       506       169  TIP3  H1            4.2078168320        3.6184518014        3.3076182295  CLST         169          1.0000000000
       507       169  TIP3  H2            4.9386240773        4.6192417269        2.3837538740  CLST         169          1.0000000000
       508       170  TIP3  OH2          -1.0320398673        4.3414969185        1.5039004423  CLST         170          1.0000000000
       509       170  TIP3  H1           -1.7659305249        5.0143450578        1.5572449479  CLST         170          1.0000000000
       510       170  TIP3  H2           -1.4593208922        3.4994502888        1.4215605068  CLST         170          1.0000000000
       511       171  TIP3  OH2          -3.1181453088        1.3641445106        7.3172372889  CLST         171          1.0000000000
       512       171  TIP3  H1           -2.6137608376        0.8638956563        6.6481061922  CLST         171          1.0000000000
       513       171  TIP3  H2           -2.3676822756        1.7240578161        7.8060116029  CLST         171          1.0000000000
       514       172  TIP3  OH2          -6.4545110666      -13.0602529281        7.9799718650  CLST         172          1.0000000000
       515       172  TIP3  H1           -7.0422569046      -13.6806017612        7.5829836952  CLST         172          1.0000000000
       516       172  TIP3  H2           -5.7460445118      -12.9221885731        7.3124192743  CLST         172          1.0000000000
       517       173  TIP3  OH2          10.2316693258      -12.6032051483        1.8086405187  CLST         173          1.0000000000
       518       173  TIP3  H1           10.4782348694      -12.5266713255        0.3286138045  CLST         173          1.0000000000
       519       173  TIP3  H2            9.4943811577      -12.0410464271        1.7539608800  CLST         173          1.0000000000
       520       174  TIP3  OH2          -0.0971764889        5.4364489486        9.8166961884  CLST         174          1.0000000000
       521       174  TIP3  H1           -0.3135198983        4.7629191911       10.4479034941  CLST         174          1.0000000000
       522       174  TIP3  H2           -0.7746345973        6.1218714906        9.9305221072  CLST         174          1.0000000000
       523       175  TIP3  OH2          -5.7371232081       10.5263834604       -3.5847772078  CLST         175          1.0000000000
       524       175  TIP3  H1           -5.2333655285       10.3609649851       -4.4166113999  CLST         175          1.0000000000
       525       175  TIP3  H2           -6.5950681300       10.4010899157       -4.0721867401  CLST         175          1.0000000000
       526       176  TIP3  OH2           6.6760724606        9.2517258803       -7.6330980420  CLST         176          1.0000000000
       527       176  TIP3  H1            7.0388923576       10.0809717524       -8.0580090789  CLST         176          1.0000000000
       528       176  TIP3  H2            6.4555366357        9.6969783186       -6.7883895619  CLST         176          1.0000000000
       529       177  TIP3  OH2          -3.8197435607      -11.3699150662       -1.5398547921  CLST         177          1.0000000000
       530       177  TIP3  H1           -2.9841125572      -11.8304758356       -1.4068498631  CLST         177          1.0000000000
       531       177  TIP3  H2           -4.3109188700      -11.2842249587       -0.6709492731  CLST         177          1.0000000000
       532       178  TIP3  OH2          10.7434669643       -9.0761489058      -11.5936056017  CLST         178          1.0000000000
       533       178  TIP3  H1           10.9254858033       -8.8927551276      -10.6298674604  CLST         178          1.0000000000
       534       178  TIP3  H2           10.6288633922       -8.1192714786      -11.8670931318  CLST         178          1.0000000000
       535       179  TIP3  OH2           6.3865266189       -0.8570427439        8.3492769155  CLST         179          1.0000000000
       536       179  TIP3  H1            6.0047708043       -0.4002226551        9.1493963231  CLST         179          1.0000000000
       537       179  TIP3  H2            7.0973758263       -0.2234114429        8.1439760857  CLST         179          1.0000000000
       538       180  TIP3  OH2          -7.5447095448        7.9517791520        6.0288793555  CLST         180          1.0000000000
       539       180  TIP3  H1           -7.4204257657        7.8190558257        7.0254213459  CLST         180          1.0000000000
       540       180  TIP3  H2           -8.4549015532        8.2598031777        6.1814237937  CLST         180          1.0000000000
       541       181  TIP3  OH2           5.9129520612      -13.0818486979       -0.3631853649  CLST         181          1.0000000000
       542       181  TIP3  H1            6.6287460996      -12.6976748889       -0.8201986784  CLST         181          1.0000000000
       543       181  TIP3  H2            6.2502489301      -13.1793138554        0.6062229505  CLST         181          1.0000000000
       544       182  TIP3  OH2          -1.8023534659       10.4266092470      -10.3645005435  CLST         182          1.0000000000
       545       182  TIP3  H1           -1.2869214114       10.8776198136       -9.6892343031  CLST         182          1.0000000000
       546       182  TIP3  H2           -2.7338524468       10.3614874957       -9.9637638478  CLST         182          1.0000000000
       547       183  TIP3  OH2          -5.5238633579        3.6760781539      -12.3373485919  CLST         183          1.0000000000
       548       183  TIP3  H1           -5.2920223577        3.5569356862      -11.3786711913  CLST         183          1.0000000000
       549       183  TIP3  H2           -6.3676777575        3.1267498233      -12.3377256258  CLST         183          1.0000000000
       550       184  TIP3  OH2           2.8916105715        8.4783303352       -2.3194391814  CLST         184          1.0000000000
       551       184  TIP3  H1            3.0681577163        7.7136851981       -1.7563729260  CLST         184          1.0000000000
       552       184  TIP3  H2            1.9528835723        8.0967935504       -2.4451647808  CLST         184          1.0000000000
       553       185  TIP3  OH2           7.4651121981        4.6178000680       12.0748075701  CLST         185          1.0000000000
       554       185  TIP3  H1            7.7061602215        3.6616033508       12.0633963093  CLST         185          1.0000000000
       555       185  TIP3  H2            6.9019253370        4.7894184868       12.8573344788  CLST         185          1.0000000000
       556       186  TIP3  OH2           3.9028991285        5.9488339787       -4.9574939115  CLST         186          1.0000000000
       557       186  TIP3  H1            3.8884376545        6.9745317300       -5.0097940000  CLST         186          1.0000000000
       558       186  TIP3  H2            4.0620087897        5.8753854721       -5.9567108513  CLST         186          1.0000000000
       559       187  TIP3  OH2           4.0559920019        1.6729858151       -5.5715112527  CLST         187          1.0000000000
       560       187  TIP3  H1            4.1659871141        1.8512052436       -4.5890915195  CLST         187          1.0000000000
       561       187  TIP3  H2            3.7380461985        0.7148981665       -5.5647716991  CLST         187          1.0000000000
       562       188  TIP3  OH2          -4.6829707638       -1.5477826513        4.8849560402  CLST         188          1.0000000000
       563       188  TIP3  H1           -4.8056027013       -0.6853827453        4.3974168545  CLST         188          1.0000000000
       564       188  TIP3  H2           -4.8455969108       -1.1516755280        5.8017814876  CLST         188          1.0000000000
       565       189  TIP3  OH2          -5.0353753577        3.5604467652      -15.1430463966  CLST         189          1.0000000000
       566       189  TIP3  H1           -5.1689734845        3.3750015335      -14.1915139765  CLST         189          1.0000000000
       567       189  TIP3  H2           -4.1509202198        3.9926692004      -14.9647100464  CLST         189          1.0000000000
       568       190  TIP3  OH2           7.3365578523       -5.6808717994        5.2598540126  CLST         190          1.0000000000
       569       190  TIP3  H1            7.1656428030       -5.6044390806        4.2889232660  CLST         190          1.0000000000
       570       190  TIP3  H2            8.2948273486       -5.8973265857        5.1095165053  CLST         190          1.0000000000
       571       191  TIP3  OH2         -11.1049271180       -5.0067039847       -6.6715114458  CLST         191          1.0000000000
       572       191  TIP3  H1          -10.4173676927       -4.4926883945       -7.1793376518  CLST         191          1.0000000000
       573       191  TIP3  H2          -10.4951973044       -5.4452756789       -6.0748594770  CLST         191          1.0000000000
       574       192  TIP3  OH2           8.6937507983       14.1472661735        1.7778814738  CLST         192          1.0000000000
       575       192  TIP3  H1            8.0564404690       14.3890917721        2.4334620750  CLST         192          1.0000000000
       576       192  TIP3  H2            8.9540397920       14.9580137226        1.4336739035  CLST         192          1.0000000000
       577       193  TIP3  OH2           6.1955072613      -12.0604780045       11.8802965207  CLST         193          1.0000000000
       578       193  TIP3  H1            7.0328890223      -12.6207730465       11.7323322824  CLST         193          1.0000000000
       579       193  TIP3  H2            6.2544653162      -11.5493018005       11.0624905703  CLST         193          1.0000000000
       580       194  TIP3  OH2          -6.2848224929       -4.3606548045       11.0844639455  CLST         194          1.0000000000
       581       194  TIP3  H1           -6.7895851433       -4.8884618008       11.6867026924  CLST         194          1.0000000000
       582       194  TIP3  H2           -6.9311779014       -4.4616097220       10.2924722634  CLST         194          1.0000000000
       583       195  TIP3  OH2          -7.4927408206        9.0278715186       10.4166761075  CLST         195          1.0000000000
       584       195  TIP3  H1           -8.4952220352        8.9901720161       10.6170814233  CLST         195          1.0000000000
       585       195  TIP3  H2           -7.4802684537        8.2633761498        9.8051459853  CLST         195          1.0000000000
       586       196  TIP3  OH2           6.0545934323      -12.1737398521       -6.0846541809  CLST         196          1.0000000000
       587       196  TIP3  H1            6.4970325763      -11.3744666522       -6.4408225266  CLST         196          1.0000000000
       588       196  TIP3  H2            5.2589636301      -11.6586852770       -5.7392132027  CLST         196          1.0000000000
       589       197  TIP3  OH2           2.3605927368       -9.2018235811       -2.8714205895  CLST         197          1.0000000000
       590       197  TIP3  H1            2.1198420147       -8.2953151502       -2.4988402063  CLST         197          1.0000000000
       591       197  TIP3  H2            3.2754835453       -9.1724498648       -2.4764964455  CLST         197          1.0000000000
       592       198  TIP3  OH2          10.8097450804        1.8641953424        4.5834041716  CLST         198          1.0000000000
       593       198  TIP3  H1            9.8722073273        1.5614953408        4.6425564186  CLST         198          1.0000000000
       594       198  TIP3  H2           10.5699361776        2.7364247548        4.1269023501  CLST         198          1.0000000000
       595       199  TIP3  OH2           0.0373574563        8.1758217857       -5.7255318303  CLST         199          1.0000000000
       596       199  TIP3  H1           -0.8564205941        8.4703939333       -5.4297889745  CLST         199          1.0000000000
       597       199  TIP3  H2           -0.0869063461        7.2136832305       -5.5926229763  CLST         199          1.0000000000
       598       200  TIP3  OH2          -7.5667390448       11.7863426780       11.0074693760  CLST         200          1.0000000000
       599       200  TIP3  H1           -7.5424700490       10.8250635623       10.7602573373  CLST         200          1.0000000000
       600       200  TIP3  H2           -7.0898538652       12.1871905898       10.2680126238  CLST         200          1.0000000000
       601       201  TIP3  OH2           4.5140154958        1.0299856845       -0.0668709980  CLST         201          1.0000000000
       602       201  TIP3  H1            4.1352248173        1.5923192926        0.6175675911  CLST         201          1.0000000000
       603       201  TIP3  H2            5.0332777676        0.4719328681        0.5445380431  CLST         201          1.0000000000
       604       202  TIP3  OH2          -2.0918888293       -4.5166168585      -12.4449242571  CLST         202          1.0000000000
       605       202  TIP3  H1           -1.8797633453       -5.1056350569      -11.6772145704  CLST         202          1.0000000000
       606       202  TIP3  H2           -2.0795544674       -3.6461188597      -11.9483870785  CLST         202          1.0000000000
       607       203  TIP3  OH2          -0.8152125612       11.2658582773        7.3775890462  CLST         203          1.0000000000
       608       203  TIP3  H1           -0.0038157763       11.0134982981        7.8765934366  CLST         203          1.0000000000
       609       203  TIP3  H2           -1.4878635839       10.9099534432        8.0464690436  CLST         203          1.0000000000
       610       204  TIP3  OH2          -5.7245543829        6.3707822539      -13.4025609825  CLST         204          1.0000000000
       611       204  TIP3  H1           -5.1112553934        6.1212779268      -14.1340610543  CLST         204          1.0000000000
       612       204  TIP3  H2           -5.8100071589        5.4383015718      -13.1191835465  CLST         204          1.0000000000
       613       205  TIP3  OH2          -2.3175576797        7.1636628945       -2.7025863200  CLST         205          1.0000000000
       614       205  TIP3  H1           -2.2914762200        7.7422909248       -3.5104422995  CLST         205          1.0000000000
       615       205  TIP3  H2           -1.3100997509        6.9164725699       -2.6142971350  CLST         205          1.0000000000
       616       206  TIP3  OH2           4.9353706257      -11.0080384393       -9.6887260703  CLST         206          1.0000000000
       617       206  TIP3  H1            4.8720443103      -12.1292962222       -9.2364692771  CLST         206          1.0000000000
       618       206  TIP3  H2            5.7435536336      -10.7265972878       -9.1078691499  CLST         206          1.0000000000
       619       207  TIP3  OH2          13.0458821160       10.0006993192       12.2761133725  CLST         207          1.0000000000
       620       207  TIP3  H1           12.2844259077        9.6642511596       12.7990470609  CLST         207          1.0000000000
       621       207  TIP3  H2           13.7441421556       10.2970813129       12.6274463525  CLST         207          1.0000000000
       622       208  TIP3  OH2         -11.6038702267        2.3353962897        6.8616758134  CLST         208          1.0000000000
       623       208  TIP3  H1          -11.1489913760        2.2312241674        7.7287442380  CLST         208          1.0000000000
       624       208  TIP3  H2          -11.3280945012        3.2226555402        6.5017457746  CLST         208          1.0000000000
       625       209  TIP3  OH2           4.4492724190       -9.1233721147        7.2786827674  CLST         209          1.0000000000
       626       209  TIP3  H1            3.9820117675       -9.5613334384        6.5217227438  CLST         209          1.0000000000
       627       209  TIP3  H2            3.6914954291       -8.5968121201        7.5415144940  CLST         209          1.0000000000
       628       210  TIP3  OH2          12.1233936864      -11.0956752311        5.3097491915  CLST         210          1.0000000000
       629       210  TIP3  H1           12.4784401175      -11.1431708432        4.3515448555  CLST         210          1.0000000000
       630       210  TIP3  H2           12.3846457965      -10.1498960842        5.5561414676  CLST         210          1.0000000000
       631       211  TIP3  OH2          -0.4062167593       -9.0192900476       12.1205722933  CLST         211          1.0000000000
       632       211  TIP3  H1           -0.1307463015       -9.6502087788       12.9624320455  CLST         211          1.0000000000
       633       211  TIP3  H2           -1.2775132172       -9.6155257594       12.0639515524  CLST         211          1.0000000000
       634       212  TIP3  OH2         -12.2620006743        3.4824328375       -2.4342555540  CLST         212          1.0000000000
       635       212  TIP3  H1          -11.7198230832        4.1213727505       -2.9414837295  CLST         212          1.0000000000
       636       212  TIP3  H2          -11.6970789911        2.6810529289       -2.3697133460  CLST         212          1.0000000000
       637       213  TIP3  OH2          -9.4596240036      -11.3141919106      -11.4093114894  CLST         213          1.0000000000
       638       213  TIP3  H1           -9.3208343330      -11.2964453547      -12.3292574481  CLST         213          1.0000000000
       639       213  TIP3  H2           -7.9609001239      -10.8655174963      -11.5892962760  CLST         213          1.0000000000
       640       214  TIP3  OH2          -6.5986873619        2.2324660223       -5.3878773695  CLST         214          1.0000000000
       641       214  TIP3  H1           -6.3864515787        1.3989612127       -4.9124694753  CLST         214          1.0000000000
       642       214  TIP3  H2           -7.1375793314        2.6367697262       -4.6594052268  CLST         214          1.0000000000
       643       215  TIP3  OH2         -11.9492016943      -12.7968432821        5.6235159874  CLST         215          1.0000000000
       644       215  TIP3  H1          -11.1211091935      -12.2995889482        5.5720905995  CLST         215          1.0000000000
       645       215  TIP3  H2          -11.9719158621      -13.0361325647        4.6652597322  CLST         215          1.0000000000
       646       216  TIP3  OH2         -12.0450408367       -2.4636539647        7.8909605004  CLST         216          1.0000000000
       647       216  TIP3  H1          -11.2524936051       -1.9051109720        8.1185608709  CLST         216          1.0000000000
       648       216  TIP3  H2          -11.7469396870       -3.3453247997        8.1779657386  CLST         216          1.0000000000
       649       217  TIP3  OH2           7.5493985431       -0.2159412174       -1.4415094002  CLST         217          1.0000000000
       650       217  TIP3  H1            7.8218824719       -1.1033943934       -1.7708981750  CLST         217          1.0000000000
       651       217  TIP3  H2            7.0746942766       -0.4298886867       -0.6435346771  CLST         217          1.0000000000
       652       218  TIP3  OH2          -8.2635437765       -3.9533147799        9.1499646295  CLST         218          1.0000000000
       653       218  TIP3  H1           -8.5732298887       -3.0523094473        8.8060722641  CLST         218          1.0000000000
       654       218  TIP3  H2           -7.7930302838       -4.2324863496        8.3409229103  CLST         218          1.0000000000
       655       219  TIP3  OH2         -12.5629048325       -4.5193717364       -2.7533904693  CLST         219          1.0000000000
       656       219  TIP3  H1          -12.6448142751       -3.5050778754       -2.7193160293  CLST         219          1.0000000000
       657       219  TIP3  H2          -12.8107547634       -4.5743090371       -3.6790874783  CLST         219          1.0000000000
       658       220  TIP3  OH2           6.4504780205        6.6669809321        7.7089262646  CLST         220          1.0000000000
       659       220  TIP3  H1            5.9816744693        6.7158035841        6.8469717591  CLST         220          1.0000000000
       660       220  TIP3  H2            5.7506016663        6.0864154520        8.1145420109  CLST         220          1.0000000000
       661       221  TIP3  OH2         -10.3469318310       -7.0586428890       10.2326795927  CLST         221          1.0000000000
       662       221  TIP3  H1           -9.4555595201       -7.3499421380       10.4282908556  CLST         221          1.0000000000
       663       221  TIP3  H2          -10.6295616539       -7.9569858840        9.9441100406  CLST         221          1.0000000000
       664       222  TIP3  OH2          -6.8831540319       -1.0137527014      -13.9147111603  CLST         222          1.0000000000
       665       222  TIP3  H1           -6.4844406806       -1.8903713672      -13.5953877350  CLST         222          1.0000000000
       666       222  TIP3  H2           -7.7999747567       -1.3121882348      -13.8782034324  CLST         222          1.0000000000
       667       223  TIP3  OH2           2.8474603422      -10.8581630856      -11.6403124319  CLST         223          1.0000000000
       668       223  TIP3  H1            2.2502709011      -11.6165205147      -11.4941123717  CLST         223          1.0000000000
       669       223  TIP3  H2            3.6023043643      -11.0605509553      -11.0455207017  CLST         223          1.0000000000
       670       224  TIP3  OH2           7.3888047544        4.6953789706        0.6184043069  CLST         224          1.0000000000
       671       224  TIP3  H1            8.1414486638        5.3101002798        0.6660718598  CLST         224          1.0000000000
       672       224  TIP3  H2            7.3542099224        4.2864774631       -0.2856583922  CLST         224          1.0000000000
       673       225  TIP3  OH2          -0.3678359873        4.5944277825       -1.2740319601  CLST         225          1.0000000000
       674       225  TIP3  H1           -0.4300677213        4.4968865270       -0.3007435897  CLST         225          1.0000000000
       675       225  TIP3  H2           -0.2844429308        3.6100854553       -1.4769046262  CLST         225          1.0000000000
       676       226  TIP3  OH2          -5.7485663690       -4.4669000601        7.5766764922  CLST         226          1.0000000000
       677       226  TIP3  H1           -5.5839011899       -5.4438009172        7.6939741624  CLST         226          1.0000000000
       678       226  TIP3  H2           -5.6917450071       -4.3419697762        6.6108164830  CLST         226          1.0000000000
       679       227  TIP3  OH2          11.5828914633       -4.1789200202       -9.8808288651  CLST         227          1.0000000000
       680       227  TIP3  H1           11.7417672543       -3.7350407456       -9.0495580652  CLST         227          1.0000000000
       681       227  TIP3  H2           11.1942859231       -3.4313105960      -10.3769588611  CLST         227          1.0000000000
       682       228  TIP3  OH2           3.8115630394       12.4037975362        3.3826559816  CLST         228          1.0000000000
       683       228  TIP3  H1            2.9182279311       12.0985805287        3.7789039285  CLST         228          1.0000000000
       684       228  TIP3  H2            3.4629954472       12.9533281571        2.6757917043  CLST         228          1.0000000000
       685       229  TIP3  OH2         -11.5497353483      -13.0700043497        2.9881741030  CLST         229          1.0000000000
       686       229  TIP3  H1          -12.0993407988      -13.3339579453        2.3092118379  CLST         229          1.0000000000
       687       229  TIP3  H2          -11.1492162364      -12.2496712302        2.4942736566  CLST         229          1.0000000000
       688       230  TIP3  OH2          12.2083130843        6.2090475727       -3.4333347716  CLST         230          1.0000000000
       689       230  TIP3  H1           12.9764881169        5.9224020586       -2.9467863980  CLST         230          1.0000000000
       690       230  TIP3  H2           11.9576213281        5.2866263804       -3.7507480644  CLST         230          1.0000000000
       691       231  TIP3  OH2           7.2284948057        3.1868901358        4.7795961643  CLST         231          1.0000000000
       692       231  TIP3  H1            7.6433806873        4.0672398163        4.9409047739  CLST         231          1.0000000000
       693       231  TIP3  H2            6.3494435192        3.5259292646        4.4943449933  CLST         231          1.0000000000
       694       232  TIP3  OH2         -10.3929301144        8.9452943726        7.5413485957  CLST         232          1.0000000000
       695       232  TIP3  H1          -10.7555038279        9.4629224295        8.2804135909  CLST         232          1.0000000000
       696       232  TIP3  H2          -10.2182516838        8.0797397645        8.0348267201  CLST         232          1.0000000000
       697       233  TIP3  OH2           3.7580712900       -5.1922366545        8.0039594460  CLST         233          1.0000000000
       698       233  TIP3  H1            4.3390503260       -5.5621637808        8.7261653925  CLST         233          1.0000000000
       699       233  TIP3  H2            3.6318353237       -4.2850690316        8.4666078862  CLST         233          1.0000000000
       700       234  TIP3  OH2          -3.5766593906        8.3144374235       -0.7544254612  CLST         234          1.0000000000
       701       234  TIP3  H1           -3.0445884991        8.0435936957       -1.5463098438  CLST         234          1.0000000000
       702       234  TIP3  H2           -3.5540381125        9.2950938310       -0.8326835682  CLST         234          1.0000000000
       703       235  TIP3  OH2          -1.9508223361       -4.1507674820       -8.9856822334  CLST         235          1.0000000000
       704       235  TIP3  H1           -1.7172110042       -5.0300274677       -9.4418409498  CLST         235          1.0000000000
       705       235  TIP3  H2           -0.9711196052       -3.9024908315       -8.9837374932  CLST         235          1.0000000000
       706       236  TIP3  OH2          -0.1398979883      -13.5980349851       -2.9105356729  CLST         236          1.0000000000
       707       236  TIP3  H1            0.4673606075      -12.7797872421       -2.7378829585  CLST         236          1.0000000000
       708       236  TIP3  H2           -0.7360309615      -13.4529683374       -2.1566908099  CLST         236          1.0000000000
       709       237  TIP3  OH2          -3.4303841751       -5.0855016825       11.0501942225  CLST         237          1.0000000000
       710       237  TIP3  H1           -4.3568798287       -4.6579817832       11.3707305565  CLST         237          1.0000000000
       711       237  TIP3  H2           -3.7502128541       -5.9424233637       10.6958789441  CLST         237          1.0000000000
       712       238  TIP3  OH2           0.5276643363        4.5649964546        7.3477190379  CLST         238          1.0000000000
       713       238  TIP3  H1           -0.2064991212        5.0289620455        6.8488379431  CLST         238          1.0000000000
       714       238  TIP3  H2            0.3095298822        4.9597617352        8.2609978476  CLST         238          1.0000000000
       715       239  TIP3  OH2         -13.9961889047        6.0238992559        3.5607498697  CLST         239          1.0000000000
       716       239  TIP3  H1          -14.0437488158        6.2054710230        2.5853412757  CLST         239          1.0000000000
       717       239  TIP3  H2          -13.1905448509        5.4163417583        3.4386163689  CLST         239          1.0000000000
       718       240  TIP3  OH2         -13.7843525402        8.9938243693       -0.2636492171  CLST         240          1.0000000000
       719       240  TIP3  H1          -14.4815649624        9.2393123770        0.3485898862  CLST         240          1.0000000000
       720       240  TIP3  H2          -13.6406524798        8.0311553928        0.0343423304  CLST         240          1.0000000000
       721       241  TIP3  OH2          -7.6915122479       -7.8112641833       -8.5912093996  CLST         241          1.0000000000
       722       241  TIP3  H1           -7.9654247134       -7.9738099524       -7.6407140815  CLST         241          1.0000000000
       723       241  TIP3  H2           -7.5977715445       -6.8064412724       -8.4841717017  CLST         241          1.0000000000
       724       242  TIP3  OH2           6.2713870377       -5.6163292144        9.7670722048  CLST         242          1.0000000000
       725       242  TIP3  H1            6.6677666156       -4.7904362107        9.3273800560  CLST         242          1.0000000000
       726       242  TIP3  H2            6.9808694633       -6.2538462559        9.5704489392  CLST         242          1.0000000000
       727       243  TIP3  OH2          -6.6272325890       -7.2319043631       -4.0005072925  CLST         243          1.0000000000
       728       243  TIP3  H1           -6.6510838181       -7.9975084957       -4.6427420531  CLST         243          1.0000000000
       729       243  TIP3  H2           -6.4294579312       -7.9127739016       -3.2256838457  CLST         243          1.0000000000
       730       244  TIP3  OH2           4.8182411543        5.6746144475        5.3914833626  CLST         244          1.0000000000
       731       244  TIP3  H1            5.0190403505        5.3332802939        4.4975466371  CLST         244          1.0000000000
       732       244  TIP3  H2            4.1151237588        5.0593252791        5.6688136816  CLST         244          1.0000000000
       733       245  TIP3  OH2          -7.0588596921        3.5816149938       -7.6901643728  CLST         245          1.0000000000
       734       245  TIP3  H1           -7.0786117250        2.9595621448       -6.8962189836  CLST         245          1.0000000000
       735       245  TIP3  H2           -7.3776760374        4.4032829504       -7.2151960841  CLST         245          1.0000000000
       736       246  TIP3  OH2           2.2119961965       -6.6123293241       -1.8101148562  CLST         246          1.0000000000
       737       246  TIP3  H1            1.9413367358       -5.9566168315       -2.5186826159  CLST         246          1.0000000000
       738       246  TIP3  H2            3.2373510105       -6.6025186378       -2.0498284798  CLST         246          1.0000000000
       739       247  TIP3  OH2           5.9306484266        8.0630254312        0.6554955405  CLST         247          1.0000000000
       740       247  TIP3  H1            6.3737991533        7.7829738738       -0.2069478262  CLST         247          1.0000000000
       741       247  TIP3  H2            5.4864257034        8.8859251107        0.4593110921  CLST         247          1.0000000000
       742       248  TIP3  OH2          -2.4294353945        8.3618066697      -11.7882260329  CLST         248          1.0000000000
       743       248  TIP3  H1           -1.9896381047        8.5726230066      -12.6208639618  CLST         248          1.0000000000
       744       248  TIP3  H2           -2.0087914625        9.0216690687      -11.1918366824  CLST         248          1.0000000000
       745       249  TIP3  OH2           8.7516553186        4.8839498751       -7.8489240793  CLST         249          1.0000000000
       746       249  TIP3  H1            7.9934935447        5.4943421668       -7.6014148061  CLST         249          1.0000000000
       747       249  TIP3  H2            8.4565865882        4.0611007175       -7.4135028894  CLST         249          1.0000000000
       748       250  TIP3  OH2          -7.6554354727        9.6649238079       -5.5712635828  CLST         250          1.0000000000
       749       250  TIP3  H1           -7.6856730198        8.9872992663       -6.2069982055  CLST         250          1.0000000000
       750       250  TIP3  H2           -7.7118057522       10.4461792951       -6.1695593701  CLST         250          1.0000000000
       751       251  TIP3  OH2          -3.6418920552       12.1589862858        2.9726614880  CLST         251          1.0000000000
       752       251  TIP3  H1           -3.0908845815       12.5164291000        2.4127225020  CLST         251          1.0000000000
       753       251  TIP3  H2           -3.1448524006       11.9539500412        3.8347613083  CLST         251          1.0000000000
       754       252  TIP3  OH2           5.9429003646        5.4039515258       14.5861802064  CLST         252          1.0000000000
       755       252  TIP3  H1            5.6038633869        6.2569454374       14.5388425049  CLST         252          1.0000000000
       756       252  TIP3  H2            5.9480966288        5.2611043083       15.5195244698  CLST         252          1.0000000000
       757       253  TIP3  OH2           6.0886205295       13.8509097844        3.2277287090  CLST         253          1.0000000000
       758       253  TIP3  H1            5.3595017834       13.2286689662        3.5112093591  CLST         253          1.0000000000
       759       253  TIP3  H2            5.9473599281       13.6901236090        2.2662480950  CLST         253          1.0000000000
       760       254  TIP3  OH2          -4.1227744631        8.2193948485        2.9983739538  CLST         254          1.0000000000
       761       254  TIP3  H1           -4.5607172613        8.8966266297        2.4753400862  CLST         254          1.0000000000
       762       254  TIP3  H2           -4.7934853200        7.5950897448        3.2068732159  CLST         254          1.0000000000
       763       255  TIP3  OH2          -7.1892916807       10.4996762164        4.2743372518  CLST         255          1.0000000000
       764       255  TIP3  H1           -8.1096237265       10.8160189253        4.4147753581  CLST         255          1.0000000000
       765       255  TIP3  H2           -7.1792263665        9.8340476021        4.9938678829  CLST         255          1.0000000000
       766       256  TIP3  OH2          11.2676510686        3.5157819109       -1.3540754545  CLST         256          1.0000000000
       767       256  TIP3  H1           11.5100076783        2.6258395441       -1.7440114949  CLST         256          1.0000000000
       768       256  TIP3  H2           11.2047694124        3.2910729226       -0.4215478730  CLST         256          1.0000000000
       769       257  TIP3  OH2          -8.6456300149       -1.1196595594       -4.9728352326  CLST         257          1.0000000000
       770       257  TIP3  H1           -7.7567115304       -0.8211371692       -4.6110419730  CLST         257          1.0000000000
       771       257  TIP3  H2           -8.5325673004       -0.9239043357       -5.9157071453  CLST         257          1.0000000000
       772       258  TIP3  OH2          -5.4187270138       10.3284972621        7.8962492783  CLST         258          1.0000000000
       773       258  TIP3  H1           -5.2592214643       10.7917731799        7.0321896724  CLST         258          1.0000000000
       774       258  TIP3  H2           -6.1373839418       10.9431526316        8.2219479503  CLST         258          1.0000000000
       775       259  TIP3  OH2          10.0099439947        6.0837743736        1.0162129207  CLST         259          1.0000000000
       776       259  TIP3  H1           10.9527467689        6.2724813349        1.0002848447  CLST         259          1.0000000000
       777       259  TIP3  H2            9.7459018578        6.7778213236        1.6911747333  CLST         259          1.0000000000
       778       260  TIP3  OH2          -4.8662996120        7.6756592598        8.6646119965  CLST         260          1.0000000000
       779       260  TIP3  H1           -5.0557090701        8.5897752971        8.3397068155  CLST         260          1.0000000000
       780       260  TIP3  H2           -5.7371648381        7.2729094108        8.4791897712  CLST         260          1.0000000000
       781       261  TIP3  OH2           0.4546388019       -3.9193362541       11.9883016145  CLST         261          1.0000000000
       782       261  TIP3  H1            0.6093549395       -5.8754532431       12.1478762203  CLST         261          1.0000000000
       783       261  TIP3  H2           -0.1925472548       -5.7661202612       12.1014781540  CLST         261          1.0000000000
       784       262  TIP3  OH2         -11.1840914802        4.8319340542        6.0337867113  CLST         262          1.0000000000
       785       262  TIP3  H1          -10.4983007957        4.6265887782        5.3375878838  CLST         262          1.0000000000
       786       262  TIP3  H2          -11.8746688126        5.3215327142        5.5250759762  CLST         262          1.0000000000
       787       263  TIP3  OH2           1.6514944402        0.9560810092        6.6414470414  CLST         263          1.0000000000
       788       263  TIP3  H1            2.2984688633        1.6830542748        6.5879249091  CLST         263          1.0000000000
       789       263  TIP3  H2            2.2717945003        0.2739151834        7.0114641215  CLST         263          1.0000000000
       790       264  TIP3  OH2           5.1511744981       -4.3005234697       -9.6644204369  CLST         264          1.0000000000
       791       264  TIP3  H1            5.1297085404       -5.2090175282      -10.0567634519  CLST         264          1.0000000000
       792       264  TIP3  H2            4.2177160355       -4.0766346474      -10.0554422092  CLST         264          1.0000000000
       793       265  TIP3  OH2           7.8644572095        5.0922165262      -10.3523415643  CLST         265          1.0000000000
       794       265  TIP3  H1            8.0303075705        6.0287569992      -10.3093469048  CLST         265          1.0000000000
       795       265  TIP3  H2            8.1802542257        4.7580787969       -9.5062011286  CLST         265          1.0000000000
       796       266  TIP3  OH2          -7.9519050156       -8.8805536116       -0.0748869739  CLST         266          1.0000000000
       797       266  TIP3  H1           -7.7286564077       -8.9764372211        0.9030359195  CLST         266          1.0000000000
       798       266  TIP3  H2           -8.1494807072       -7.9327633871       -0.0724387780  CLST         266          1.0000000000
       799       267  TIP3  OH2           1.2201381494        2.5312281305       -5.0958044573  CLST         267          1.0000000000
       800       267  TIP3  H1            1.4774181592        3.3849219476       -4.6255129610  CLST         267          1.0000000000
       801       267  TIP3  H2            2.0622956535        2.0586528246       -4.9761429119  CLST         267          1.0000000000
       802       268  TIP3  OH2           5.1901306677       -4.5000438889       -7.0019425204  CLST         268          1.0000000000
       803       268  TIP3  H1            5.1753575916       -4.2572951820       -7.9928906885  CLST         268          1.0000000000
       804       268  TIP3  H2            4.8287422862       -5.4075711792       -7.1560544659  CLST         268          1.0000000000
       805       269  TIP3  OH2           5.4950500465       10.8437801568       -0.2334930880  CLST         269          1.0000000000
       806       269  TIP3  H1            6.3875180232       10.6956431775       -0.5746944355  CLST         269          1.0000000000
       807       269  TIP3  H2            5.7821922464       11.6956824100        0.2270626076  CLST         269          1.0000000000
       808       270  TIP3  OH2           1.0595180471        9.4033597260       -7.7855372515  CLST         270          1.0000000000
       809       270  TIP3  H1            0.9495027103        8.5924494741       -8.2685913773  CLST         270          1.0000000000
       810       270  TIP3  H2            0.6900922516        9.0103694000       -6.9309699629  CLST         270          1.0000000000
       811       271  TIP3  OH2          -6.3426486043       -9.1652087921       -2.1525658503  CLST         271          1.0000000000
       812       271  TIP3  H1           -5.5917403792       -9.0874659743       -1.5298407449  CLST         271          1.0000000000
       813       271  TIP3  H2           -7.0485665870       -9.1809634897       -1.3954407519  CLST         271          1.0000000000
       814       272  TIP3  OH2           9.6655641198       -8.3036602446        5.7621671181  CLST         272          1.0000000000
       815       272  TIP3  H1            8.7206882187       -8.4583324543        5.9794223019  CLST         272          1.0000000000
       816       272  TIP3  H2            9.5658810851       -7.6589219168        4.9886094158  CLST         272          1.0000000000
       817       273  TIP3  OH2         -13.7239622443        9.4572138722        3.2063476229  CLST         273          1.0000000000
       818       273  TIP3  H1          -14.2433999265        9.7204161376        4.0288918394  CLST         273          1.0000000000
       819       273  TIP3  H2          -13.7026876250        8.5315937030        3.4630021338  CLST         273          1.0000000000
       820       274  TIP3  OH2           4.1617058002       12.9158579398       -3.9973861259  CLST         274          1.0000000000
       821       274  TIP3  H1            4.2159633440       11.7592199410       -3.4272039703  CLST         274          1.0000000000
       822       274  TIP3  H2            4.2328135935       13.9627323117       -3.9907020007  CLST         274          1.0000000000
       823       275  TIP3  OH2           8.8215858058      -11.3601461436        6.0241785448  CLST         275          1.0000000000
       824       275  TIP3  H1            9.4083438349      -10.6011585173        5.8902401693  CLST         275          1.0000000000
       825       275  TIP3  H2            9.3313717165      -12.1023939811        5.5939670603  CLST         275          1.0000000000
       826       276  TIP3  OH2          -0.1486700608       -5.8187180513        1.3988530082  CLST         276          1.0000000000
       827       276  TIP3  H1           -1.2161290907       -6.2147419300        0.3876515884  CLST         276          1.0000000000
       828       276  TIP3  H2           -0.8915845425       -4.8425557121        2.2509279957  CLST         276          1.0000000000
       829       277  TIP3  OH2           6.3786273552        6.4477906328       -6.9241737737  CLST         277          1.0000000000
       830       277  TIP3  H1            5.6317968824        6.0575573201       -7.4553782039  CLST         277          1.0000000000
       831       277  TIP3  H2            6.3263848320        7.3671134893       -7.2659725690  CLST         277          1.0000000000
       832       278  TIP3  OH2          -0.5130237628       -7.4635825207        3.6276571555  CLST         278          1.0000000000
       833       278  TIP3  H1           -0.1623858209       -6.8712404834        2.9219352858  CLST         278          1.0000000000
       834       278  TIP3  H2           -0.8608703908       -6.7567059077        4.2613255589  CLST         278          1.0000000000
       835       279  TIP3  OH2         -13.5455681388        6.3226601794        0.7584468703  CLST         279          1.0000000000
       836       279  TIP3  H1          -13.5973463869        5.3585598141        0.2368383787  CLST         279          1.0000000000
       837       279  TIP3  H2          -12.5788395544        6.3925539461        0.7626238918  CLST         279          1.0000000000
       838       280  TIP3  OH2          -3.3416349706      -10.1755554675        5.6286168324  CLST         280          1.0000000000
       839       280  TIP3  H1           -3.4867894425       -9.3745600941        6.1995469665  CLST         280          1.0000000000
       840       280  TIP3  H2           -3.4740548863       -9.6713397934        4.7951593916  CLST         280          1.0000000000
       841       281  TIP3  OH2           8.1864134015        7.8081455373      -10.5774978253  CLST         281          1.0000000000
       842       281  TIP3  H1            8.5127778539        8.7562198566      -10.6458687280  CLST         281          1.0000000000
       843       281  TIP3  H2            7.2347569086        7.9789079465      -10.5454957933  CLST         281          1.0000000000
       844       282  TIP3  OH2          -7.5845131988      -11.8400020107       10.0417429110  CLST         282          1.0000000000
       845       282  TIP3  H1           -8.9012186180      -12.0557196557        9.2109315520  CLST         282          1.0000000000
       846       282  TIP3  H2           -7.4412236246      -12.6502649755        9.7327996689  CLST         282          1.0000000000
       847       283  TIP3  OH2           4.5008057240        8.6489927027       -4.7973606477  CLST         283          1.0000000000
       848       283  TIP3  H1            4.6080875891        9.6647763010       -4.9335300982  CLST         283          1.0000000000
       849       283  TIP3  H2            3.9916173499        8.8087961497       -3.9044861606  CLST         283          1.0000000000
       850       284  TIP3  OH2          11.9219674273        8.2291738864       -1.3146855348  CLST         284          1.0000000000
       851       284  TIP3  H1           11.9000830659        7.4665596119       -1.9624171912  CLST         284          1.0000000000
       852       284  TIP3  H2           11.0533954583        8.6336894297       -1.5773886466  CLST         284          1.0000000000
       853       285  TIP3  OH2          -5.2938735604        2.1226546939        8.8681920029  CLST         285          1.0000000000
       854       285  TIP3  H1           -4.6383769089        1.7790579138        8.2456790822  CLST         285          1.0000000000
       855       285  TIP3  H2           -4.7298751979        2.8524347011        9.1920144253  CLST         285          1.0000000000
       856       286  TIP3  OH2           2.8637884576        5.8271564331       -0.5226352448  CLST         286          1.0000000000
       857       286  TIP3  H1            2.0219313430        5.5642964315       -0.0620889669  CLST         286          1.0000000000
       858       286  TIP3  H2            3.5046918506        5.6770749099        0.2154809069  CLST         286          1.0000000000
       859       287  TIP3  OH2          -4.2121734045        9.3621993333       11.2487253665  CLST         287          1.0000000000
       860       287  TIP3  H1           -4.4280280432       10.2064718471       11.7419411530  CLST         287          1.0000000000
       861       287  TIP3  H2           -5.0942222383        8.9653080133       11.2582356106  CLST         287          1.0000000000
       862       288  TIP3  OH2           5.4415722515        3.5097818657       -9.2504256242  CLST         288          1.0000000000
       863       288  TIP3  H1            5.8105764595        2.9577287839      -10.0327095135  CLST         288          1.0000000000
       864       288  TIP3  H2            6.9994490115        4.5362245381      -10.2136833900  CLST         288          1.0000000000
       865       289  TIP3  OH2          -7.1190401309       -5.2159751828       -8.1894487808  CLST         289          1.0000000000
       866       289  TIP3  H1           -7.8874646292       -4.5051372504       -8.0987565438  CLST         289          1.0000000000
       867       289  TIP3  H2           -6.3602860957       -4.6242731690       -8.0414943655  CLST         289          1.0000000000
       868       290  TIP3  OH2           2.2935570120      -11.7611522946       11.2252102594  CLST         290          1.0000000000
       869       290  TIP3  H1            3.0090405612      -12.3989372269       11.1112487628  CLST         290          1.0000000000
       870       290  TIP3  H2            2.7412143797      -11.1455953214       11.8555758969  CLST         290          1.0000000000
       871       291  TIP3  OH2         -10.2270528931       -3.5698512287        2.8516222172  CLST         291          1.0000000000
       872       291  TIP3  H1          -10.8475864758       -4.1975112176        3.3212555686  CLST         291          1.0000000000
       873       291  TIP3  H2          -10.5836549105       -3.5864526809        1.9464094868  CLST         291          1.0000000000
       874       292  TIP3  OH2          12.1230922293        3.7492478908       -4.6304522359  CLST         292          1.0000000000
       875       292  TIP3  H1           11.5134538235        3.0128107384       -4.6246573758  CLST         292          1.0000000000
       876       292  TIP3  H2           11.9471632269        4.2872852478       -5.4717332618  CLST         292          1.0000000000
       877       293  TIP3  OH2           8.9270361552       10.6547627922       11.0917540828  CLST         293          1.0000000000
       878       293  TIP3  H1            8.6544032882       11.5690789270       11.2575279504  CLST         293          1.0000000000
       879       293  TIP3  H2            9.1912528415       10.8954472708       10.1748510178  CLST         293          1.0000000000
       880       294  TIP3  OH2           4.1195037026        4.5124519524       -2.3011853067  CLST         294          1.0000000000
       881       294  TIP3  H1            3.6264812109        5.1362935998       -1.6956012554  CLST         294          1.0000000000
       882       294  TIP3  H2            4.3373360852        5.1022871172       -3.0622209308  CLST         294          1.0000000000
       883       295  TIP3  OH2          -2.3520218410      -13.6137300393       -8.7875780201  CLST         295          1.0000000000
       884       295  TIP3  H1           -3.0593972205      -13.5415583655       -8.0632719259  CLST         295          1.0000000000
       885       295  TIP3  H2           -1.6199342454      -13.8714289856       -8.2374325200  CLST         295          1.0000000000
       886       296  TIP3  OH2          -1.4682975489       11.6292843048      -13.0850915788  CLST         296          1.0000000000
       887       296  TIP3  H1           -0.5314130139       11.3133620677      -13.1998726476  CLST         296          1.0000000000
       888       296  TIP3  H2           -1.6031282191       11.3493173806      -12.1186738894  CLST         296          1.0000000000
       889       297  TIP3  OH2           8.0082837023       -0.4798937741       11.5918151658  CLST         297          1.0000000000
       890       297  TIP3  H1            8.5889396482       -1.1477923631       11.1185790805  CLST         297          1.0000000000
       891       297  TIP3  H2            7.1566825333       -1.0831676737       11.5595848736  CLST         297          1.0000000000
       892       298  TIP3  OH2           0.8795016207       -1.3125883431       -7.5936777231  CLST         298          1.0000000000
       893       298  TIP3  H1            1.3410124623       -0.6510620711       -8.2223338678  CLST         298          1.0000000000
       894       298  TIP3  H2            0.7677603170       -2.0242437426       -8.3204619545  CLST         298          1.0000000000
       895       299  TIP3  OH2           3.1566007757       10.2575332010       12.8947583912  CLST         299          1.0000000000
       896       299  TIP3  H1            2.3884745411       10.6224289601       12.3664616675  CLST         299          1.0000000000
       897       299  TIP3  H2            2.6980888039        9.5613757211       13.2566180365  CLST         299          1.0000000000
       898       300  TIP3  OH2         -10.9261341731        5.1335509419       -3.8481292573  CLST         300          1.0000000000
       899       300  TIP3  H1          -10.9475203867        5.6810573936       -4.6762652638  CLST         300          1.0000000000
       900       300  TIP3  H2          -10.9746783615        5.9745201583       -3.2746095984  CLST         300          1.0000000000
       901       301  TIP3  OH2           9.5227766698       -8.3779607259       11.4341972502  CLST         301          1.0000000000
       902       301  TIP3  H1            9.3244000809       -8.0087316417       12.3348578781  CLST         301          1.0000000000
       903       301  TIP3  H2            9.5643588865       -9.3479317377       11.5885261396  CLST         301          1.0000000000
       904       302  TIP3  OH2           7.9569944411       12.9737162480        5.4216188885  CLST         302          1.0000000000
       905       302  TIP3  H1            7.4496093652       13.6153003176        4.8513901681  CLST         302          1.0000000000
       906       302  TIP3  H2            7.1966214652       12.4570543764        5.7341859653  CLST         302          1.0000000000
       907       303  TIP3  OH2         -11.0425137984        1.1545442383       -2.1886145530  CLST         303          1.0000000000
       908       303  TIP3  H1          -10.1840765105        0.8303367381       -1.9235650196  CLST         303          1.0000000000
       909       303  TIP3  H2          -11.1521279071        0.6600831397       -3.0356256036  CLST         303          1.0000000000
       910       304  TIP3  OH2          -7.9282774806        1.2969731078      -14.6991430680  CLST         304          1.0000000000
       911       304  TIP3  H1           -7.5009121793        0.4294876441      -14.4594520574  CLST         304          1.0000000000
       912       304  TIP3  H2           -7.4316595236        1.5095982640      -15.5182877568  CLST         304          1.0000000000
       913       305  TIP3  OH2           3.4338600736       -3.8743868584       14.0531547257  CLST         305          1.0000000000
       914       305  TIP3  H1            4.2275372990       -4.3216524226       13.7119689146  CLST         305          1.0000000000
       915       305  TIP3  H2            3.7227348674       -2.9895783411       13.7552991007  CLST         305          1.0000000000
       916       306  TIP3  OH2           8.9669138879      -11.8247793057      -11.3494142721  CLST         306          1.0000000000
       917       306  TIP3  H1            9.4698887147      -11.8552849848      -12.2228127179  CLST         306          1.0000000000
       918       306  TIP3  H2            9.2431576265      -12.6115647863      -10.9021872009  CLST         306          1.0000000000
       919       307  TIP3  OH2           9.2126393466        7.9193387314       -7.6510721414  CLST         307          1.0000000000
       920       307  TIP3  H1            8.2872834539        8.1358817276       -7.6988653986  CLST         307          1.0000000000
       921       307  TIP3  H2            9.4466295919        8.0755010269       -6.6982592339  CLST         307          1.0000000000
       922       308  TIP3  OH2         -10.8878755624       -4.8662177735        8.7750906604  CLST         308          1.0000000000
       923       308  TIP3  H1          -10.9124109343       -5.6115019918        9.4926626277  CLST         308          1.0000000000
       924       308  TIP3  H2           -9.9299549196       -4.6206959712        8.9532586904  CLST         308          1.0000000000
       925       309  TIP3  OH2          -2.0331484935       -0.5889586072        5.6244633753  CLST         309          1.0000000000
       926       309  TIP3  H1           -2.8250440731       -0.9849107914        5.2312080051  CLST         309          1.0000000000
       927       309  TIP3  H2           -2.0827379061       -1.2054958862        6.3812916020  CLST         309          1.0000000000
       928       310  TIP3  OH2          -4.9007419059       -0.6589025165        7.2861767282  CLST         310          1.0000000000
       929       310  TIP3  H1           -4.1369740889       -0.1529071980        7.5742651548  CLST         310          1.0000000000
       930       310  TIP3  H2           -5.0403335593       -1.2634573003        8.0651762737  CLST         310          1.0000000000
       931       311  TIP3  OH2          -7.3200219301        8.4468157193      -12.4969240522  CLST         311          1.0000000000
       932       311  TIP3  H1           -6.8218230285        7.6881096251      -12.9352672098  CLST         311          1.0000000000
       933       311  TIP3  H2           -7.0639931794        8.1593210556      -11.5558469593  CLST         311          1.0000000000
       934       312  TIP3  OH2           6.5833481533       -0.8116931691       -6.2228694983  CLST         312          1.0000000000
       935       312  TIP3  H1            6.1224848044       -0.3139030023       -5.4955089573  CLST         312          1.0000000000
       936       312  TIP3  H2            6.4782561524       -1.6864599546       -5.8252773558  CLST         312          1.0000000000
       937       313  TIP3  OH2          -8.9037524153      -10.6842534742        7.1962180892  CLST         313          1.0000000000
       938       313  TIP3  H1           -8.2676895512       -9.9551190401        7.2544340633  CLST         313          1.0000000000
       939       313  TIP3  H2           -9.1495356376      -10.7534139364        6.2959627957  CLST         313          1.0000000000
       940       314  TIP3  OH2          -1.4263171333      -12.1272557768      -10.6568785879  CLST         314          1.0000000000
       941       314  TIP3  H1           -1.2727360984      -11.3364410266      -10.0683315972  CLST         314          1.0000000000
       942       314  TIP3  H2           -1.8691909292      -12.7264328783       -9.9957990275  CLST         314          1.0000000000
       943       315  TIP3  OH2          -1.4199377110       -0.6242401715       -6.6502355590  CLST         315          1.0000000000
       944       315  TIP3  H1           -0.5030816515       -0.8645884534       -6.9646533141  CLST         315          1.0000000000
       945       315  TIP3  H2           -1.3389468750       -0.4470361386       -5.7212182228  CLST         315          1.0000000000
       946       316  TIP3  OH2         -13.2211847032       -3.9242838153       -5.2965553965  CLST         316          1.0000000000
       947       316  TIP3  H1          -12.5190361306       -4.4192527350       -5.7704251098  CLST         316          1.0000000000
       948       316  TIP3  H2          -12.9125301219       -3.0613875500       -5.6878789832  CLST         316          1.0000000000
       949       317  TIP3  OH2          -6.2910798481        0.0132401016       -3.6914900842  CLST         317          1.0000000000
       950       317  TIP3  H1           -5.4261804655       -0.1729642867       -3.2352076259  CLST         317          1.0000000000
       951       317  TIP3  H2           -6.8566065496        0.4246646900       -2.9619285916  CLST         317          1.0000000000
       952       318  TIP3  OH2          -3.7960001634       -9.7866366843       -9.5116943012  CLST         318          1.0000000000
       953       318  TIP3  H1           -4.0946274160       -9.9751755217       -8.5374995836  CLST         318          1.0000000000
       954       318  TIP3  H2           -2.8440268644       -9.7996203355       -9.3783283029  CLST         318          1.0000000000
       955       319  TIP3  OH2           5.6445192930       10.7529866670        8.5663705595  CLST         319          1.0000000000
       956       319  TIP3  H1            6.4447234587       10.2058941000        8.2300888546  CLST         319          1.0000000000
       957       319  TIP3  H2            6.2305011508       11.1451640256        9.2839286887  CLST         319          1.0000000000
       958       320  TIP3  OH2         -10.6504617764        1.0613525449      -14.5280091482  CLST         320          1.0000000000
       959       320  TIP3  H1           -9.7429313743        1.3367111702      -14.8586229525  CLST         320          1.0000000000
       960       320  TIP3  H2          -10.2602197745        0.2776674812      -14.0583576685  CLST         320          1.0000000000
       961       321  TIP3  OH2          -9.6555272093       10.3324426752       -9.5206357134  CLST         321          1.0000000000
       962       321  TIP3  H1          -10.9019756704       10.2614355033       -9.0905519614  CLST         321          1.0000000000
       963       321  TIP3  H2           -9.7004964616       10.0215016988      -10.9425915516  CLST         321          1.0000000000
       964       322  TIP3  OH2         -12.6273699934       -1.7824731212       -2.4418686387  CLST         322          1.0000000000
       965       322  TIP3  H1          -12.2734595347       -1.2519395982       -3.2059297178  CLST         322          1.0000000000
       966       322  TIP3  H2          -11.7748197624       -1.8504563301       -1.9381349244  CLST         322          1.0000000000
       967       323  TIP3  OH2          -0.8249532793        4.0556391223        4.2724874784  CLST         323          1.0000000000
       968       323  TIP3  H1           -0.6153915060        3.1233238179        4.5159901550  CLST         323          1.0000000000
       969       323  TIP3  H2           -0.6802224770        4.0616334231        3.2818856690  CLST         323          1.0000000000
       970       324  TIP3  OH2         -10.7293327329        6.2972167200        1.4261848825  CLST         324          1.0000000000
       971       324  TIP3  H1          -10.7915889197        5.5207537259        2.0065311740  CLST         324          1.0000000000
       972       324  TIP3  H2          -10.0329952573        6.8394875394        1.9330118465  CLST         324          1.0000000000
       973       325  TIP3  OH2          -4.9069581733        0.7251919305        3.7251544040  CLST         325          1.0000000000
       974       325  TIP3  H1           -5.9253007952        0.7852503089        3.7747019359  CLST         325          1.0000000000
       975       325  TIP3  H2           -4.7106517163        1.4317025601        3.0970091518  CLST         325          1.0000000000
       976       326  TIP3  OH2           9.2683201582        8.6824655004       -2.8561314090  CLST         326          1.0000000000
       977       326  TIP3  H1            8.9445912457        7.8083024061       -2.5023205458  CLST         326          1.0000000000
       978       326  TIP3  H2            8.5516082328        8.8261622906       -3.5039305998  CLST         326          1.0000000000
       979       327  TIP3  OH2          10.4098359778       -3.7369138059      -13.0696797819  CLST         327          1.0000000000
       980       327  TIP3  H1           10.5601183301       -3.4448150419      -13.8377417600  CLST         327          1.0000000000
       981       327  TIP3  H2           10.0785283698       -3.0516767244      -12.3652287916  CLST         327          1.0000000000
       982       328  TIP3  OH2           2.2875742172        7.1705430261       -9.9299829197  CLST         328          1.0000000000
       983       328  TIP3  H1            2.7235110910        6.2543282416       -9.5477930113  CLST         328          1.0000000000
       984       328  TIP3  H2            3.2246227630        7.5308895465       -9.8599421589  CLST         328          1.0000000000
       985       329  TIP3  OH2           1.2956554872      -11.5647176569       -2.1770110042  CLST         329          1.0000000000
       986       329  TIP3  H1            1.5467483180      -10.6796745254       -2.6507909340  CLST         329          1.0000000000
       987       329  TIP3  H2            2.1737628815      -11.6354524090       -1.7474878152  CLST         329          1.0000000000
       988       330  TIP3  OH2          -9.4365998446       -1.1319971810        3.5019081277  CLST         330          1.0000000000
       989       330  TIP3  H1           -9.7221852004       -2.1086768731        3.3388419582  CLST         330          1.0000000000
       990       330  TIP3  H2          -10.1322447982       -0.8135640420        4.0641336168  CLST         330          1.0000000000
       991       331  TIP3  OH2          12.3363473521        9.6602677013       -9.2317910046  CLST         331          1.0000000000
       992       331  TIP3  H1           12.8954244521        9.9859259802       -9.8386596696  CLST         331          1.0000000000
       993       331  TIP3  H2           12.3872122000        8.6740781371       -9.1771667548  CLST         331          1.0000000000
       994       332  TIP3  OH2          11.2809736431       -1.5106321729       -4.5513723703  CLST         332          1.0000000000
       995       332  TIP3  H1           12.3518696551       -1.6422471948       -5.5190200029  CLST         332          1.0000000000
       996       332  TIP3  H2           12.9490254268       -1.1773917566       -4.0538382707  CLST         332          1.0000000000
       997       333  TIP3  OH2          10.5883902135      -14.0467412083        7.9361833258  CLST         333          1.0000000000
       998       333  TIP3  H1            9.6422767220      -13.7072637872        7.9080248914  CLST         333          1.0000000000
       999       333  TIP3  H2           10.7025878774      -14.0144576302        6.9528277570  CLST         333          1.0000000000
      1000       334  TIP3  OH2         -10.6655485963       -9.5946694670        9.0962583118  CLST         334          1.0000000000
      1001       334  TIP3  H1          -11.5408293172       -9.8503291901        8.4945066374  CLST         334          1.0000000000
      1002       334  TIP3  H2          -10.1213866582      -10.2095805884        8.5218375381  CLST         334          1.0000000000
      1003       335  TIP3  OH2           6.9585550014      -10.0699007237        1.3339469841  CLST         335          1.0000000000
      1004       335  TIP3  H1            6.8909310251      -10.3966723512        2.2683554542  CLST         335          1.0000000000
      1005       335  TIP3  H2            5.9918549796       -9.9256372896        1.2069796268  CLST         335          1.0000000000
      1006       336  TIP3  OH2          -9.2807162835       -3.5882878945       -3.3634191612  CLST         336          1.0000000000
      1007       336  TIP3  H1           -9.5815897840       -4.2785081597       -4.0255944372  CLST         336          1.0000000000
      1008       336  TIP3  H2           -8.9714261636       -2.8919399958       -3.9604470967  CLST         336          1.0000000000
      1009       337  TIP3  OH2          -1.5492243566       -4.9764758639        8.0144982865  CLST         337          1.0000000000
      1010       337  TIP3  H1           -1.0781588869       -4.8947439587        8.9021796035  CLST         337          1.0000000000
      1011       337  TIP3  H2           -1.8877341455       -4.0201080941        8.0228391902  CLST         337          1.0000000000
      1012       338  TIP3  OH2          -0.4250647164        2.6131896710       10.4721416582  CLST         338          1.0000000000
      1013       338  TIP3  H1           -0.3823842728        2.6886549369        9.4341425997  CLST         338          1.0000000000
      1014       338  TIP3  H2           -0.2216874371        1.6886073319       10.4438752536  CLST         338          1.0000000000
      1015       339  TIP3  OH2           7.8505117764        8.1597999839        2.8439734247  CLST         339          1.0000000000
      1016       339  TIP3  H1            7.5446483771        8.8952622204        3.4924264511  CLST         339          1.0000000000
      1017       339  TIP3  H2            7.1582232611        8.1050224665        2.1149852402  CLST         339          1.0000000000
      1018       340  TIP3  OH2          -4.5646207383      -11.7358032251      -11.1469317500  CLST         340          1.0000000000
      1019       340  TIP3  H1           -4.2451019661      -11.0239283640      -10.5102594264  CLST         340          1.0000000000
      1020       340  TIP3  H2           -4.0305839206      -12.4549366511      -10.8661043738  CLST         340          1.0000000000
      1021       341  TIP3  OH2          -6.7131119955        4.6960183178        9.4959500687  CLST         341          1.0000000000
      1022       341  TIP3  H1           -5.7378905657        4.5391020238        9.6929269419  CLST         341          1.0000000000
      1023       341  TIP3  H2           -6.9297924522        3.7519540077        9.2829372937  CLST         341          1.0000000000
      1024       342  TIP3  OH2          -4.3407259625      -11.0170498865       13.7815176400  CLST         342          1.0000000000
      1025       342  TIP3  H1           -5.3776625739      -11.0698978728       12.8128120078  CLST         342          1.0000000000
      1026       342  TIP3  H2           -4.6574754737      -10.6486850109       14.5405903224  CLST         342          1.0000000000
      1027       343  TIP3  OH2           1.4114666435       -9.0413736532       -9.8983810029  CLST         343          1.0000000000
      1028       343  TIP3  H1            1.3773138578       -8.1233234084      -10.3223303884  CLST         343          1.0000000000
      1029       343  TIP3  H2            2.0143464917       -9.4472568831      -10.6037402860  CLST         343          1.0000000000
      1030       344  TIP3  OH2           5.5715512125       -3.9333563944        6.2014506954  CLST         344          1.0000000000
      1031       344  TIP3  H1            5.0680954078       -4.5973651610        6.7805613910  CLST         344          1.0000000000
      1032       344  TIP3  H2            6.1150844106       -4.5323841835        5.6253866766  CLST         344          1.0000000000
      1033       345  TIP3  OH2          13.0759067421        7.1388887703        8.8635391542  CLST         345          1.0000000000
      1034       345  TIP3  H1           12.6434135225        6.2778366623        8.5970747015  CLST         345          1.0000000000
      1035       345  TIP3  H2           12.4836520144        7.3411358093        9.6988353335  CLST         345          1.0000000000
      1036       346  TIP3  OH2           9.3085511169        9.5671371254        1.0086409518  CLST         346          1.0000000000
      1037       346  TIP3  H1            9.6735175592       10.2880559873        1.6115239443  CLST         346          1.0000000000
      1038       346  TIP3  H2            8.9150604103        9.0259314689        1.7245068554  CLST         346          1.0000000000
      1039       347  TIP3  OH2          -5.1417170666        3.0750982218       -9.6446567501  CLST         347          1.0000000000
      1040       347  TIP3  H1           -5.9222574165        3.2932177971       -9.0746054839  CLST         347          1.0000000000
      1041       347  TIP3  H2           -4.4959023650        2.9491591523       -8.9209525122  CLST         347          1.0000000000
      1042       348  TIP3  OH2          -1.1925083085        6.0839761711        5.8386237913  CLST         348          1.0000000000
      1043       348  TIP3  H1           -1.3576802581        5.2141324137        5.3740399453  CLST         348          1.0000000000
      1044       348  TIP3  H2           -0.5288471665        6.4029900870        5.0865586429  CLST         348          1.0000000000
      1045       349  TIP3  OH2          -4.2197683496        5.3690092134       -2.5444407849  CLST         349          1.0000000000
      1046       349  TIP3  H1           -3.8133829883        4.8914543548       -3.3160441130  CLST         349          1.0000000000
      1047       349  TIP3  H2           -3.5331864226        6.0717007517       -2.5160615181  CLST         349          1.0000000000
      1048       350  TIP3  OH2          -2.7452333494        8.7908840158        5.2203178492  CLST         350          1.0000000000
      1049       350  TIP3  H1           -3.2608815547        8.5977068285        4.3716761870  CLST         350          1.0000000000
      1050       350  TIP3  H2           -2.3662764525        7.9790716420        5.4328603680  CLST         350          1.0000000000
      1051       351  TIP3  OH2           4.8256468218       -7.4655703598       -7.6525186474  CLST         351          1.0000000000
      1052       351  TIP3  H1            4.1050120541       -8.2130055049       -7.5651959498  CLST         351          1.0000000000
      1053       351  TIP3  H2            4.8125602052       -7.2996851501       -8.6312965236  CLST         351          1.0000000000
      1054       352  TIP3  OH2         -10.3743869894      -11.0439917448        1.7712161529  CLST         352          1.0000000000
      1055       352  TIP3  H1           -9.4450954270      -11.0360162269        1.5454246220  CLST         352          1.0000000000
      1056       352  TIP3  H2          -10.6304442030      -10.2414275205        1.2710634187  CLST         352          1.0000000000
      1057       353  TIP3  OH2          10.6863492467       -8.1900302291       -8.5204877335  CLST         353          1.0000000000
      1058       353  TIP3  H1            9.7753891051       -8.4409280869       -8.7611530812  CLST         353          1.0000000000
      1059       353  TIP3  H2           10.6484672475       -8.3212652523       -7.5526902382  CLST         353          1.0000000000
      1060       354  TIP3  OH2           6.8839683764      -10.6086007900        4.1928805831  CLST         354          1.0000000000
      1061       354  TIP3  H1            7.4265739998      -10.9424743449        4.9446944115  CLST         354          1.0000000000
      1062       354  TIP3  H2            6.6976076691       -9.7222630318        4.5921921316  CLST         354          1.0000000000
      1063       355  TIP3  OH2          -7.3428685571        8.8180586670       -8.8182503179  CLST         355          1.0000000000
      1064       355  TIP3  H1           -7.0709450366        9.6950802877       -8.4354674077  CLST         355          1.0000000000
      1065       355  TIP3  H2           -8.1682466701        9.2066670885       -9.3514391804  CLST         355          1.0000000000
      1066       356  TIP3  OH2          12.4030552875        0.9104952578       -2.0151287665  CLST         356          1.0000000000
      1067       356  TIP3  H1           11.4542755202        0.7175836520       -2.2726927582  CLST         356          1.0000000000
      1068       356  TIP3  H2           12.4936161170        0.6764857314       -1.0568032245  CLST         356          1.0000000000
      1069       357  TIP3  OH2          -0.4563752323       -0.5474590648       -2.0766115698  CLST         357          1.0000000000
      1070       357  TIP3  H1            0.4328576402       -0.9640030500       -2.3639908520  CLST         357          1.0000000000
      1071       357  TIP3  H2           -0.5913101876       -0.0732564898       -2.9318795905  CLST         357          1.0000000000
      1072       358  TIP3  OH2          -5.6766482066        7.0552087309       -7.5041708585  CLST         358          1.0000000000
      1073       358  TIP3  H1           -6.3303178665        7.5153926219       -8.0819057391  CLST         358          1.0000000000
      1074       358  TIP3  H2           -6.3461458708        6.5351752405       -6.9548367960  CLST         358          1.0000000000
      1075       359  TIP3  OH2          -5.1683828073       12.1725260977        6.0167039925  CLST         359          1.0000000000
      1076       359  TIP3  H1           -5.4008598311       12.1686612577        5.0849002789  CLST         359          1.0000000000
      1077       359  TIP3  H2           -4.1684497986       12.2538319515        5.8765487148  CLST         359          1.0000000000
      1078       360  TIP3  OH2          -6.8163246793        5.6403073321       -3.2997657472  CLST         360          1.0000000000
      1079       360  TIP3  H1           -7.1111116052        6.3896196201       -2.7587440255  CLST         360          1.0000000000
      1080       360  TIP3  H2           -5.8310698790        5.6692269359       -3.0413316534  CLST         360          1.0000000000
      1081       361  TIP3  OH2          -1.5103316478       -1.2803371161        9.8465061258  CLST         361          1.0000000000
      1082       361  TIP3  H1           -1.4622317377       -0.8891275923       11.8026509934  CLST         361          1.0000000000
      1083       361  TIP3  H2           -1.8577211032       -2.1771780116       11.0383142935  CLST         361          1.0000000000
      1084       362  TIP3  OH2         -10.6368676630        2.9029864526        0.5972757478  CLST         362          1.0000000000
      1085       362  TIP3  H1          -10.4338355864        3.3947892547       -0.2233666104  CLST         362          1.0000000000
      1086       362  TIP3  H2          -11.2701223907        2.2519785205        0.2496013133  CLST         362          1.0000000000
      1087       363  TIP3  OH2          10.4651546613        2.4298077829       10.1968905990  CLST         363          1.0000000000
      1088       363  TIP3  H1           10.7142328031        1.4347195959        9.9360808318  CLST         363          1.0000000000
      1089       363  TIP3  H2           11.2811066024        2.6691206612       10.5266967126  CLST         363          1.0000000000
      1090       364  TIP3  OH2           7.7264923481       -5.6239401131       -6.3342083742  CLST         364          1.0000000000
      1091       364  TIP3  H1            6.9145889420       -5.1680147566       -6.6912492517  CLST         364          1.0000000000
      1092       364  TIP3  H2            8.3470431684       -5.3759522713       -7.0841011496  CLST         364          1.0000000000
      1093       365  TIP3  OH2          -6.1095748290       -6.7782521499        2.7066715883  CLST         365          1.0000000000
      1094       365  TIP3  H1           -6.5672869116       -5.9591605650        2.5572579216  CLST         365          1.0000000000
      1095       365  TIP3  H2           -6.8885506979       -7.3148633523        3.0696926239  CLST         365          1.0000000000
      1096       366  TIP3  OH2           1.9563994377       -1.4340525189       -2.9763255193  CLST         366          1.0000000000
      1097       366  TIP3  H1            2.9074142196       -1.4278841552       -2.6702709663  CLST         366          1.0000000000
      1098       366  TIP3  H2            2.1290004647       -0.9533517119       -3.8011957222  CLST         366          1.0000000000
      1099       367  TIP3  OH2          -5.1909181669       11.8395841481       12.2680737204  CLST         367          1.0000000000
      1100       367  TIP3  H1           -6.1161404184       11.7655955260       11.9585389006  CLST         367          1.0000000000
      1101       367  TIP3  H2           -5.2475639054       11.7549978070       13.1486353521  CLST         367          1.0000000000
      1102       368  TIP3  OH2          -2.7219802519        6.4831600304        1.0831130638  CLST         368          1.0000000000
      1103       368  TIP3  H1           -2.8831628810        7.1796828801        0.3583556117  CLST         368          1.0000000000
      1104       368  TIP3  H2           -2.8290093843        7.1376490250        1.7815341583  CLST         368          1.0000000000
      1105       369  TIP3  OH2         -11.6333989732       -1.7631836098       -6.4745986975  CLST         369          1.0000000000
      1106       369  TIP3  H1          -10.7166283058       -2.0486684562       -6.6133425859  CLST         369          1.0000000000
      1107       369  TIP3  H2          -11.9705964383       -1.9980971950       -7.3976660126  CLST         369          1.0000000000
      1108       370  TIP3  OH2         -11.8882466967        5.5827594748      -11.7973300019  CLST         370          1.0000000000
      1109       370  TIP3  H1          -12.3057793823        4.8733915073      -12.4284193032  CLST         370          1.0000000000
      1110       370  TIP3  H2          -12.6090623632        5.7818081529      -11.2661928037  CLST         370          1.0000000000
      1111       371  TIP3  OH2           2.1551001750        7.7409543977        5.8154020268  CLST         371          1.0000000000
      1112       371  TIP3  H1            1.8980855483        7.6248488713        6.7596719847  CLST         371          1.0000000000
      1113       371  TIP3  H2            3.0905193743        7.4167165210        5.8196613413  CLST         371          1.0000000000
      1114       372  TIP3  OH2           8.0935773486       -7.5194321945        9.1969865803  CLST         372          1.0000000000
      1115       372  TIP3  H1            8.7205985894       -7.2281604432        8.5542160067  CLST         372          1.0000000000
      1116       372  TIP3  H2            8.7105384657       -7.8324097505        9.9178012019  CLST         372          1.0000000000
      1117       373  TIP3  OH2          11.1782977823       -0.3414775636        6.6760766777  CLST         373          1.0000000000
      1118       373  TIP3  H1           11.2179940365        0.4479286313        6.0922563493  CLST         373          1.0000000000
      1119       373  TIP3  H2           10.4973646103       -0.6546876732        6.1230445372  CLST         373          1.0000000000
      1120       374  TIP3  OH2          -9.3659275895        4.5724341107      -12.4190611216  CLST         374          1.0000000000
      1121       374  TIP3  H1           -9.7902443321        5.0047517121      -13.1692316064  CLST         374          1.0000000000
      1122       374  TIP3  H2          -10.1110509547        4.8553003972      -11.8217911114  CLST         374          1.0000000000
      1123       375  TIP3  OH2           9.6429962360       -5.4302330733       -2.8089078970  CLST         375          1.0000000000
      1124       375  TIP3  H1            9.9874705203       -4.9618630949       -3.6182016921  CLST         375          1.0000000000
      1125       375  TIP3  H2            9.9396507015       -6.3434116926       -2.9639241295  CLST         375          1.0000000000
      1126       376  TIP3  OH2          -2.3608029181      -11.1423915600       11.9342741376  CLST         376          1.0000000000
      1127       376  TIP3  H1           -2.9552012262      -11.2845151036       12.7818938247  CLST         376          1.0000000000
      1128       376  TIP3  H2           -3.0621721635      -11.3499026534       11.2819724793  CLST         376          1.0000000000
      1129       377  TIP3  OH2         -10.1014648780       12.5310077914       10.3796888902  CLST         377          1.0000000000
      1130       377  TIP3  H1           -9.0956274520       12.3607781279       10.5726327851  CLST         377          1.0000000000
      1131       377  TIP3  H2           -9.9258823826       13.1274064866        9.6375404260  CLST         377          1.0000000000
      1132       378  TIP3  OH2           1.9226799668       -7.9100698127        7.3610927589  CLST         378          1.0000000000
      1133       378  TIP3  H1            1.5226738337       -7.0093476940        7.4599856374  CLST         378          1.0000000000
      1134       378  TIP3  H2            1.1744571053       -8.3746138611        7.6994177256  CLST         378          1.0000000000
      1135       379  TIP3  OH2          -9.3806092049        9.2962020418       -1.2428811096  CLST         379          1.0000000000
      1136       379  TIP3  H1           -8.9242758163        9.4781897256       -0.3911953415  CLST         379          1.0000000000
      1137       379  TIP3  H2           -9.8322175615       10.2599589054       -1.5523683118  CLST         379          1.0000000000
      1138       380  TIP3  OH2           2.9360905039       -4.1622597828      -11.1933628119  CLST         380          1.0000000000
      1139       380  TIP3  H1            2.4507282786       -3.3957618727      -11.6596534446  CLST         380          1.0000000000
      1140       380  TIP3  H2            3.4433743556       -4.4592593609      -11.9714812020  CLST         380          1.0000000000
      1141       381  TIP3  OH2          10.2040434369        4.2976165194        3.3173326258  CLST         381          1.0000000000
      1142       381  TIP3  H1            9.5479103957        4.8454407868        3.8473586124  CLST         381          1.0000000000
      1143       381  TIP3  H2           10.9073800346        5.0660213906        3.3225761206  CLST         381          1.0000000000
      1144       382  TIP3  OH2           1.8932864288       -5.3941782296        5.8924029311  CLST         382          1.0000000000
      1145       382  TIP3  H1            2.5828992569       -5.3600722694        6.6094336438  CLST         382          1.0000000000
      1146       382  TIP3  H2            2.4710592554       -5.8866223186        5.2597657068  CLST         382          1.0000000000
      1147       383  TIP3  OH2          10.2555145623        8.7918955529        4.9517187559  CLST         383          1.0000000000
      1148       383  TIP3  H1            9.4860547482        8.9966456535        4.3761209005  CLST         383          1.0000000000
      1149       383  TIP3  H2           10.4177847067        9.6935944591        5.2572346688  CLST         383          1.0000000000
      1150       384  TIP3  OH2          -3.3345564037       -1.8546694519       -8.4972067934  CLST         384          1.0000000000
      1151       384  TIP3  H1           -2.8737272276       -2.7337708382       -8.6026261877  CLST         384          1.0000000000
      1152       384  TIP3  H2           -2.7700244050       -1.3880505543       -7.8158271645  CLST         384          1.0000000000
      1153       385  TIP3  OH2           3.7072173131      -11.7711090164       -0.6544056639  CLST         385          1.0000000000
      1154       385  TIP3  H1            4.5246450610      -12.3518320231       -0.5356763752  CLST         385          1.0000000000
      1155       385  TIP3  H2            3.9075462688      -10.9891609662       -0.1210677477  CLST         385          1.0000000000
      1156       386  TIP3  OH2          -4.2414739018        9.3914636667       -6.1674891755  CLST         386          1.0000000000
      1157       386  TIP3  H1           -4.6834893021        8.5419595849       -6.3858069867  CLST         386          1.0000000000
      1158       386  TIP3  H2           -4.1280491282        9.5943853179       -7.1451828009  CLST         386          1.0000000000
      1159       387  TIP3  OH2          -9.9491449701       10.5033025235        2.9004573227  CLST         387          1.0000000000
      1160       387  TIP3  H1          -10.7591411803       10.2323639630        2.3710621442  CLST         387          1.0000000000
      1161       387  TIP3  H2           -9.2326288368       10.3924296555        2.2261019470  CLST         387          1.0000000000
      1162       388  TIP3  OH2          -1.6814962912      -12.3610907344        5.9325342920  CLST         388          1.0000000000
      1163       388  TIP3  H1           -2.0160713676      -11.4142412147        5.8127984187  CLST         388          1.0000000000
      1164       388  TIP3  H2           -1.8054687978      -12.3540917993        6.9088261664  CLST         388          1.0000000000
      1165       389  TIP3  OH2          -8.1593881155        3.4550734242       -3.4360918413  CLST         389          1.0000000000
      1166       389  TIP3  H1           -7.6808513543        4.3379747638       -3.3252604444  CLST         389          1.0000000000
      1167       389  TIP3  H2           -9.0466096912        3.9056018077       -3.5170084267  CLST         389          1.0000000000
      1168       390  TIP3  OH2          -5.8167236158       -3.7820944123        4.5742145513  CLST         390          1.0000000000
      1169       390  TIP3  H1           -5.4238771626       -2.8159242092        4.5954543330  CLST         390          1.0000000000
      1170       390  TIP3  H2           -4.9852860877       -4.1839560913        4.1806875209  CLST         390          1.0000000000
      1171       391  TIP3  OH2          -8.5884753907       -8.7636787141       -6.0028926161  CLST         391          1.0000000000
      1172       391  TIP3  H1           -8.9960979235       -9.4955801833       -6.4897307014  CLST         391          1.0000000000
      1173       391  TIP3  H2           -7.8306856677       -9.3073330738       -5.6253955241  CLST         391          1.0000000000
      1174       392  TIP3  OH2           0.8973097414       -2.0272334858        9.8469604047  CLST         392          1.0000000000
      1175       392  TIP3  H1            0.2582851723       -3.3997882759       10.5572699783  CLST         392          1.0000000000
      1176       392  TIP3  H2           -0.5975577771       -1.5299114851        9.7523241908  CLST         392          1.0000000000
      1177       393  TIP3  OH2          10.8013176314      -12.2851057502       -0.7866291239  CLST         393          1.0000000000
      1178       393  TIP3  H1           12.1418484825      -10.4863537756       -1.1659970894  CLST         393          1.0000000000
      1179       393  TIP3  H2           11.8277847360      -12.2241384352       -0.9346741783  CLST         393          1.0000000000
      1180       394  TIP3  OH2           0.3199050711       11.7980531630       -8.6030508070  CLST         394          1.0000000000
      1181       394  TIP3  H1            0.7317578870       12.2194337765       -7.8321944492  CLST         394          1.0000000000
      1182       394  TIP3  H2            0.6248512363       10.8992972255       -8.2864926812  CLST         394          1.0000000000
      1183       395  TIP3  OH2           6.9266767769        7.4920321823       -4.4760242005  CLST         395          1.0000000000
      1184       395  TIP3  H1            6.0899808226        8.0213677131       -4.5939195550  CLST         395          1.0000000000
      1185       395  TIP3  H2            6.7485411503        7.0040260418       -5.3547113149  CLST         395          1.0000000000
      1186       396  TIP3  OH2          -1.1368663421       -9.9027655056       -9.0556736833  CLST         396          1.0000000000
      1187       396  TIP3  H1           -1.0951760939       -9.9592415461       -8.0190820532  CLST         396          1.0000000000
      1188       396  TIP3  H2           -0.2440436543       -9.5395188854       -9.2123112701  CLST         396          1.0000000000
      1189       397  TIP3  OH2          11.3437331024        7.1433319342       -8.9537365411  CLST         397          1.0000000000
      1190       397  TIP3  H1           11.4659713057        6.4267775881       -8.2587883269  CLST         397          1.0000000000
      1191       397  TIP3  H2           10.5203807282        7.4615599077       -8.5347783745  CLST         397          1.0000000000
      1192       398  TIP3  OH2          10.6651778982        7.6679395612       -4.8627244150  CLST         398          1.0000000000
      1193       398  TIP3  H1           10.2486592622        8.2540981312       -4.1348599591  CLST         398          1.0000000000
      1194       398  TIP3  H2           11.2452364152        7.1411329100       -4.2235288507  CLST         398          1.0000000000
      1195       399  TIP3  OH2           1.9258531152       11.2149946505        4.8051881123  CLST         399          1.0000000000
      1196       399  TIP3  H1            1.2537790859       10.5535085724        5.0621679658  CLST         399          1.0000000000
      1197       399  TIP3  H2            2.3732120009       11.1925526522        5.6871227937  CLST         399          1.0000000000
      1198       400  TIP3  OH2           4.0359176211       -3.0277258351       -4.9552679973  CLST         400          1.0000000000
      1199       400  TIP3  H1            4.8277938094       -3.1675199793       -4.4355472523  CLST         400          1.0000000000
      1200       400  TIP3  H2            4.2763415462       -3.4356066468       -5.8330205547  CLST         400          1.0000000000
      1201       401  TIP3  OH2         -14.9945090816        9.8417036214        5.5360205736  CLST         401          1.0000000000
      1202       401  TIP3  H1          -14.4987234771       10.3742753552        6.2203312683  CLST         401          1.0000000000
      1203       401  TIP3  H2          -15.4020122382        9.1719544039        6.1786440217  CLST         401          1.0000000000
      1204       402  TIP3  OH2           1.6877910285       -1.7849535293       12.7326238201  CLST         402          1.0000000000
      1205       402  TIP3  H1            1.4453663675       -2.7527521049       12.9550780059  CLST         402          1.0000000000
      1206       402  TIP3  H2            1.5502642686       -1.9830477982       11.7358218304  CLST         402          1.0000000000
      1207       403  TIP3  OH2          -1.9466856167       -7.2532075432       -0.3763421425  CLST         403          1.0000000000
      1208       403  TIP3  H1           -1.7237797298       -8.4479613196       -0.8069021395  CLST         403          1.0000000000
      1209       403  TIP3  H2           -1.7058644873       -8.1935997972       -2.0475581086  CLST         403          1.0000000000
      1210       404  TIP3  OH2          -5.0250850612       -2.5644344120        9.0395274280  CLST         404          1.0000000000
      1211       404  TIP3  H1           -5.0764292527       -3.0368579737        9.8920037678  CLST         404          1.0000000000
      1212       404  TIP3  H2           -5.3902312346       -3.3007898012        8.4950566324  CLST         404          1.0000000000
      1213       405  TIP3  OH2         -11.8991150109        7.3001936386       11.3885904032  CLST         405          1.0000000000
      1214       405  TIP3  H1          -11.7606750227        6.3355938948       11.1884941238  CLST         405          1.0000000000
      1215       405  TIP3  H2          -12.8291088344        7.2777551559       11.4772378231  CLST         405          1.0000000000
      1216       406  TIP3  OH2           1.0569736167        7.8136106660      -12.2720392362  CLST         406          1.0000000000
      1217       406  TIP3  H1            1.1582487865        8.7553316213      -12.4329508291  CLST         406          1.0000000000
      1218       406  TIP3  H2            1.5477755004        7.7004916345      -11.4008496493  CLST         406          1.0000000000
      1219       407  TIP3  OH2          10.6192619590      -13.2362788652        5.1833304756  CLST         407          1.0000000000
      1220       407  TIP3  H1           10.6156327190      -13.6554223692        4.3283020480  CLST         407          1.0000000000
      1221       407  TIP3  H2           11.3173561530      -12.5508221784        5.1953759130  CLST         407          1.0000000000
      1222       408  TIP3  OH2          -2.7870689759      -11.5732378825        1.9285325536  CLST         408          1.0000000000
      1223       408  TIP3  H1           -1.9922163174      -10.9387783542        1.7823625596  CLST         408          1.0000000000
      1224       408  TIP3  H2           -2.2045630462      -12.3273180272        2.1510297206  CLST         408          1.0000000000
      1225       409  TIP3  OH2           0.9077498354       -9.5963334584        9.7367841706  CLST         409          1.0000000000
      1226       409  TIP3  H1            0.7205397967       -8.8064624966       10.3981724593  CLST         409          1.0000000000
      1227       409  TIP3  H2            1.7634462426      -10.0751298749        9.9836712773  CLST         409          1.0000000000
      1228       410  TIP3  OH2           9.8195805799       -7.1406327533       -5.1543582187  CLST         410          1.0000000000
      1229       410  TIP3  H1            8.8649543816       -6.8391334048       -5.3348031699  CLST         410          1.0000000000
      1230       410  TIP3  H2           10.2081515441       -6.3077343046       -5.6422701333  CLST         410          1.0000000000
      1231       411  TIP3  OH2          -9.9799862566       -2.3733253041       -1.1872645079  CLST         411          1.0000000000
      1232       411  TIP3  H1           -9.1419179597       -1.8774437786       -1.2246500075  CLST         411          1.0000000000
      1233       411  TIP3  H2           -9.7741704180       -3.0173865161       -1.8907009217  CLST         411          1.0000000000
      1234       412  TIP3  OH2           6.6352957153      -10.6325290462      -12.0153428223  CLST         412          1.0000000000
      1235       412  TIP3  H1            5.9749760020      -10.9655295946      -11.3676521201  CLST         412          1.0000000000
      1236       412  TIP3  H2            7.4160841502      -11.2908626936      -11.8467472390  CLST         412          1.0000000000
      1237       413  TIP3  OH2           6.9826130009       13.0173035833        0.3496041175  CLST         413          1.0000000000
      1238       413  TIP3  H1            7.4335269532       12.5849031016       -0.3696475185  CLST         413          1.0000000000
      1239       413  TIP3  H2            7.7429039621       13.4420899808        0.8232776055  CLST         413          1.0000000000
      1240       414  TIP3  OH2           1.5241225410       -2.4864461842      -12.4283967669  CLST         414          1.0000000000
      1241       414  TIP3  H1            0.6349786636       -2.1260509529      -12.2230753590  CLST         414          1.0000000000
      1242       414  TIP3  H2            1.5513021883       -2.7809418334      -13.3437038351  CLST         414          1.0000000000
      1243       415  TIP3  OH2           4.0044019491        4.5289639394       -8.1505653380  CLST         415          1.0000000000
      1244       415  TIP3  H1            3.3154072844        3.8960212830       -7.7485284407  CLST         415          1.0000000000
      1245       415  TIP3  H2            4.5977946032        3.8267826641       -8.5556073153  CLST         415          1.0000000000
      1246       416  TIP3  OH2           5.6535591057       12.5747451854       -7.7604566178  CLST         416          1.0000000000
      1247       416  TIP3  H1            5.2301049707       13.3273312973       -7.7731988871  CLST         416          1.0000000000
      1248       416  TIP3  H2            6.4543963897       12.3726414050       -8.2642157480  CLST         416          1.0000000000
      1249       417  TIP3  OH2          12.7558361057      -11.2421466118        2.7676222312  CLST         417          1.0000000000
      1250       417  TIP3  H1           11.9101114021      -11.5918567147        2.3346609878  CLST         417          1.0000000000
      1251       417  TIP3  H2           12.6766402230      -10.3637296911        2.2919708392  CLST         417          1.0000000000
      1252       418  TIP3  OH2          -9.2231701063       -1.6271489990        8.3430973298  CLST         418          1.0000000000
      1253       418  TIP3  H1           -8.8249645566       -1.1590426445        7.5778296614  CLST         418          1.0000000000
      1254       418  TIP3  H2           -9.2414496586       -1.0204085657        9.0974789126  CLST         418          1.0000000000
      1255       419  TIP3  OH2          13.9361545121        0.4258110648       -6.1093955389  CLST         419          1.0000000000
      1256       419  TIP3  H1           13.0831586681        0.7241921603       -5.0086885826  CLST         419          1.0000000000
      1257       419  TIP3  H2           14.2748637659        0.9333512237       -4.9919665256  CLST         419          1.0000000000
      1258       420  TIP3  OH2          -8.1249322443       -8.2311670044        3.4889933517  CLST         420          1.0000000000
      1259       420  TIP3  H1           -8.9929103508       -7.8564716642        3.1904076321  CLST         420          1.0000000000
      1260       420  TIP3  H2           -8.2697155564       -9.1724653751        3.3559375010  CLST         420          1.0000000000
      1261       421  TIP3  OH2           3.5346645078       -6.3444916554      -13.3401838959  CLST         421          1.0000000000
      1262       421  TIP3  H1            4.4614879050       -6.6584530697      -13.2997694210  CLST         421          1.0000000000
      1263       421  TIP3  H2            3.0988419587       -7.2640856164      -13.3446285317  CLST         421          1.0000000000
      1264       422  TIP3  OH2          -1.8718511873       -9.2899590352       -1.6943233657  CLST         422          1.0000000000
      1265       422  TIP3  H1           -1.4241081579      -10.0869309847       -1.3037052864  CLST         422          1.0000000000
      1266       422  TIP3  H2           -2.7578142682       -9.6610602661       -1.4673056598  CLST         422          1.0000000000
      1267       423  TIP3  OH2           1.7431714271        4.9553562585       -3.9817208000  CLST         423          1.0000000000
      1268       423  TIP3  H1            2.5782032151        5.2502073697       -4.4671033179  CLST         423          1.0000000000
      1269       423  TIP3  H2            2.1514872014        4.5333126544       -3.1856106481  CLST         423          1.0000000000
      1270       424  TIP3  OH2          -9.0783476672        4.3067840438        4.4124406383  CLST         424          1.0000000000
      1271       424  TIP3  H1           -8.9209375683        3.5376125205        3.8555346033  CLST         424          1.0000000000
      1272       424  TIP3  H2           -8.2992842420        4.8375871192        4.2977270262  CLST         424          1.0000000000
      1273       425  TIP3  OH2           8.1050607866      -12.6030094551        8.1775047070  CLST         425          1.0000000000
      1274       425  TIP3  H1            8.2018205368      -12.2181726336        7.2479691674  CLST         425          1.0000000000
      1275       425  TIP3  H2            7.6942333855      -11.7960593678        8.5372166830  CLST         425          1.0000000000
      1276       426  TIP3  OH2           8.1362615236        2.4912530113        8.1684620217  CLST         426          1.0000000000
      1277       426  TIP3  H1            8.7846919637        2.3769090164        8.9084949683  CLST         426          1.0000000000
      1278       426  TIP3  H2            8.3105264786        3.4454577592        7.9969803927  CLST         426          1.0000000000
      1279       427  TIP3  OH2          11.4793236627        7.5104455401       10.8266048265  CLST         427          1.0000000000
      1280       427  TIP3  H1           11.4925483462        7.9023031171       11.7196381201  CLST         427          1.0000000000
      1281       427  TIP3  H2           10.6809968350        6.9356863987       10.8454591546  CLST         427          1.0000000000
      1282       428  TIP3  OH2          12.4920201265        7.5178396637        1.0983334425  CLST         428          1.0000000000
      1283       428  TIP3  H1           12.2971691503        7.8839698084        0.1177020896  CLST         428          1.0000000000
      1284       428  TIP3  H2           13.3122550521        7.8221980010        1.0331905005  CLST         428          1.0000000000
      1285       429  TIP3  OH2          11.9100373292       -9.7665941357       -0.7672088009  CLST         429          1.0000000000
      1286       429  TIP3  H1           11.8833565377       -9.2149148423        0.1001761309  CLST         429          1.0000000000
      1287       429  TIP3  H2           11.3688409722       -9.1128636890       -1.4008094654  CLST         429          1.0000000000
      1288       430  TIP3  OH2           9.7757473682       -6.6671250668        3.8170988198  CLST         430          1.0000000000
      1289       430  TIP3  H1            9.6599342252       -7.1125227199        2.9204099126  CLST         430          1.0000000000
      1290       430  TIP3  H2           10.6611710242       -6.2956682998        3.6531503824  CLST         430          1.0000000000
      1291       431  TIP3  OH2         -12.6247603157        9.5437465112       -2.4364052202  CLST         431          1.0000000000
      1292       431  TIP3  H1          -14.7962945259        9.6984821606       -1.9363985778  CLST         431          1.0000000000
      1293       431  TIP3  H2          -13.2543005423        8.9591477260       -1.4007061456  CLST         431          1.0000000000
      1294       432  TIP3  OH2           5.4672633559        8.4967058402       -9.8711137963  CLST         432          1.0000000000
      1295       432  TIP3  H1            5.7550612164        8.8763293711       -9.0226975099  CLST         432          1.0000000000
      1296       432  TIP3  H2            4.8507225903        9.2491875647      -10.0696775129  CLST         432          1.0000000000
      1297       433  TIP3  OH2          -0.7528762577        8.0285034802        7.6165323678  CLST         433          1.0000000000
      1298       433  TIP3  H1           -1.6194461666        8.3469072642        7.9016746338  CLST         433          1.0000000000
      1299       433  TIP3  H2           -1.0908052589        7.2627361974        7.0783889507  CLST         433          1.0000000000
      1300       434  TIP3  OH2          -7.4670019577        0.6302967539        3.6558202683  CLST         434          1.0000000000
      1301       434  TIP3  H1           -7.8731855797        1.2116558230        2.9535044684  CLST         434          1.0000000000
      1302       434  TIP3  H2           -8.0934128446       -0.1562131751        3.4141298566  CLST         434          1.0000000000
      1303       435  TIP3  OH2          10.2306642203       -0.6314550303       -6.8092434683  CLST         435          1.0000000000
      1304       435  TIP3  H1            9.7979952346       -0.4424277000       -5.9406384305  CLST         435          1.0000000000
      1305       435  TIP3  H2           11.0053997975       -0.1093204966       -6.7815328048  CLST         435          1.0000000000
      1306       436  TIP3  OH2           3.7544835976       10.3394697360       -8.9856505857  CLST         436          1.0000000000
      1307       436  TIP3  H1            4.2350793325       11.0043599833       -8.4464501340  CLST         436          1.0000000000
      1308       436  TIP3  H2            2.9009838488       10.2716018529       -8.4996585734  CLST         436          1.0000000000
      1309       437  TIP3  OH2          -8.4075266056       -0.7308420285       -8.0883089960  CLST         437          1.0000000000
      1310       437  TIP3  H1           -8.6900897483       -0.3427322185       -8.9654268083  CLST         437          1.0000000000
      1311       437  TIP3  H2           -7.4839110266       -0.3556198588       -7.9714319440  CLST         437          1.0000000000
      1312       438  TIP3  OH2          -3.3663420761        5.5329214541       -8.1789713749  CLST         438          1.0000000000
      1313       438  TIP3  H1           -4.2149281838        5.9364365511       -7.9672575169  CLST         438          1.0000000000
      1314       438  TIP3  H2           -3.3429633107        6.0302379164       -9.0208981519  CLST         438          1.0000000000
      1315       439  TIP3  OH2          14.0436119551        1.7054944863       -4.2271416337  CLST         439          1.0000000000
      1316       439  TIP3  H1           13.9935405385        2.6670127412       -3.9652431765  CLST         439          1.0000000000
      1317       439  TIP3  H2           14.1043570531        1.5305708713       -3.2354628596  CLST         439          1.0000000000
      1318       440  TIP3  OH2           1.1283254807      -12.8961250097      -11.2552581264  CLST         440          1.0000000000
      1319       440  TIP3  H1            0.1120929235      -12.5715363814      -10.9986658309  CLST         440          1.0000000000
      1320       440  TIP3  H2            0.7900864769      -13.6887954255      -11.6420917788  CLST         440          1.0000000000
      1321       441  TIP3  OH2          -1.3843472030       -4.2686620915        3.0575956420  CLST         441          1.0000000000
      1322       441  TIP3  H1           -1.7913353150       -3.4537992295        3.1016755263  CLST         441          1.0000000000
      1323       441  TIP3  H2           -1.2109019223       -4.5834270771        4.0128910388  CLST         441          1.0000000000
      1324       442  TIP3  OH2           3.2879758858       -9.7303857848       -7.9242112285  CLST         442          1.0000000000
      1325       442  TIP3  H1            3.9172493805      -10.0927121656       -8.5880542313  CLST         442          1.0000000000
      1326       442  TIP3  H2            2.5195157332       -9.4355343635       -8.4722982612  CLST         442          1.0000000000
      1327       443  TIP3  OH2           1.1248910074       10.5098835508      -12.9097266394  CLST         443          1.0000000000
      1328       443  TIP3  H1            1.4718184025       11.2131901115      -12.2304379494  CLST         443          1.0000000000
      1329       443  TIP3  H2            1.6129092359       10.6588632039      -13.6609883359  CLST         443          1.0000000000
      1330       444  TIP3  OH2          -7.9980332787        1.3789151009       -1.6873302417  CLST         444          1.0000000000
      1331       444  TIP3  H1           -8.1742022116        2.2052776070       -2.2041642590  CLST         444          1.0000000000
      1332       444  TIP3  H2           -7.5290008502        1.9442950590       -1.0009697192  CLST         444          1.0000000000
      1333       445  TIP3  OH2         -11.4270239007       -5.2827294101        6.1559403860  CLST         445          1.0000000000
      1334       445  TIP3  H1          -11.5290662663       -4.3362741704        5.8917475865  CLST         445          1.0000000000
      1335       445  TIP3  H2          -11.2704807046       -5.2457225271        7.1316858562  CLST         445          1.0000000000
      1336       446  TIP3  OH2          -2.8733686334        4.7541106655       -5.2518381574  CLST         446          1.0000000000
      1337       446  TIP3  H1           -3.0197911283        4.9625495623       -6.1854347947  CLST         446          1.0000000000
      1338       446  TIP3  H2           -1.9517748457        5.0416076604       -5.1332931787  CLST         446          1.0000000000
      1339       447  TIP3  OH2          -4.9342512450      -12.5838270853       -3.5994798309  CLST         447          1.0000000000
      1340       447  TIP3  H1           -5.5145094495      -13.1029767137       -3.2955630428  CLST         447          1.0000000000
      1341       447  TIP3  H2           -4.5899935221      -12.0634274381       -2.5542497077  CLST         447          1.0000000000
      1342       448  TIP3  OH2           7.2735242455        9.7304473341        4.6626686556  CLST         448          1.0000000000
      1343       448  TIP3  H1            7.4672906701        9.6302708743        5.6430173733  CLST         448          1.0000000000
      1344       448  TIP3  H2            6.4950738644       10.3148366877        4.7900977983  CLST         448          1.0000000000
      1345       449  TIP3  OH2           4.2786020278        5.0745730401        8.4939868692  CLST         449          1.0000000000
      1346       449  TIP3  H1            4.7542481344        4.4847374436        9.1403203945  CLST         449          1.0000000000
      1347       449  TIP3  H2            3.9675289606        4.4894288431        7.7973831960  CLST         449          1.0000000000
      1348       450  TIP3  OH2          -3.9798562514        0.5496169977       -2.3156544759  CLST         450          1.0000000000
      1349       450  TIP3  H1           -3.7327496414        1.3246135544       -2.8340883423  CLST         450          1.0000000000
      1350       450  TIP3  H2           -3.2011462068        0.1198012014       -1.9986871611  CLST         450          1.0000000000
      1351       451  TIP3  OH2          13.4135517675       -0.7669226785       -6.4108090697  CLST         451          1.0000000000
      1352       451  TIP3  H1           13.9691857673       -1.4214341222       -5.9435088766  CLST         451          1.0000000000
      1353       451  TIP3  H2           14.0466638719       -0.0613618750       -6.4838596507  CLST         451          1.0000000000
      1354       452  TIP3  OH2           8.4997338610        5.0761062477        7.7226870934  CLST         452          1.0000000000
      1355       452  TIP3  H1            7.7374781042        5.6671742133        7.5577171251  CLST         452          1.0000000000
      1356       452  TIP3  H2            9.2512534113        5.7114378005        7.4846919231  CLST         452          1.0000000000
      1357       453  TIP3  OH2           7.0417807537        2.7368975406       -6.1590471930  CLST         453          1.0000000000
      1358       453  TIP3  H1            6.2973215823        2.3308765568       -5.6622817986  CLST         453          1.0000000000
      1359       453  TIP3  H2            6.7027507873        2.5990165554       -7.0778514127  CLST         453          1.0000000000
      1360       454  TIP3  OH2           1.2322620237        5.5392268493        1.9701304633  CLST         454          1.0000000000
      1361       454  TIP3  H1            0.3003570774        5.2139221957        1.7757184850  CLST         454          1.0000000000
      1362       454  TIP3  H2            1.0080077219        6.2265233347        2.6180240779  CLST         454          1.0000000000
      1363       455  TIP3  OH2          -1.1519025303        0.9421132083      -10.3365485437  CLST         455          1.0000000000
      1364       455  TIP3  H1           -1.4472438142        1.1672295670       -9.4038493059  CLST         455          1.0000000000
      1365       455  TIP3  H2           -0.9552718841        1.8734401085      -10.6336774599  CLST         455          1.0000000000
      1366       456  TIP3  OH2           5.3654213087       11.3044844592        5.1863002508  CLST         456          1.0000000000
      1367       456  TIP3  H1            4.7759803720       11.5264101303        4.4578569310  CLST         456          1.0000000000
      1368       456  TIP3  H2            4.7590735271       11.3273334509        5.9651745759  CLST         456          1.0000000000
      1369       457  TIP3  OH2          -4.8216322014       -7.8269555188        4.8045518731  CLST         457          1.0000000000
      1370       457  TIP3  H1           -5.3891949436       -7.5606169347        5.5331933268  CLST         457          1.0000000000
      1371       457  TIP3  H2           -5.1345467911       -7.2731121898        4.0166807399  CLST         457          1.0000000000
      1372       458  TIP3  OH2           8.1212308245       -6.6363083426      -11.1804195008  CLST         458          1.0000000000
      1373       458  TIP3  H1            9.0764238318       -6.4241868678      -11.4400421143  CLST         458          1.0000000000
      1374       458  TIP3  H2            7.9515349764       -5.7619853844      -10.7540089728  CLST         458          1.0000000000
      1375       459  TIP3  OH2           6.6938153460       -9.9282415940       -7.8056630663  CLST         459          1.0000000000
      1376       459  TIP3  H1            6.2741106811       -9.1200659087       -7.4544328334  CLST         459          1.0000000000
      1377       459  TIP3  H2            7.2742896209       -9.4833727939       -8.4701418399  CLST         459          1.0000000000
      1378       460  TIP3  OH2           9.0633454533       -2.1926568212       -2.9227396301  CLST         460          1.0000000000
      1379       460  TIP3  H1            9.6059784755       -2.8870961040       -2.5377105612  CLST         460          1.0000000000
      1380       460  TIP3  H2            9.7727148603       -1.6799039559       -3.4121403426  CLST         460          1.0000000000
      1381       461  TIP3  OH2          -1.2366361473      -12.7607866487       -5.3237243939  CLST         461          1.0000000000
      1382       461  TIP3  H1           -0.5519702885      -12.8941908904       -6.0374780042  CLST         461          1.0000000000
      1383       461  TIP3  H2           -0.7782209400      -13.1444858447       -4.5106560802  CLST         461          1.0000000000
      1384       462  TIP3  OH2           0.0391678783        5.4004698198      -12.7160652507  CLST         462          1.0000000000
      1385       462  TIP3  H1            0.3736853889        6.3729448129      -12.5137170184  CLST         462          1.0000000000
      1386       462  TIP3  H2            0.9396186884        5.1529075641      -12.8837321541  CLST         462          1.0000000000
      1387       463  TIP3  OH2          -1.8613050040        1.6823930061       -7.7967756185  CLST         463          1.0000000000
      1388       463  TIP3  H1           -1.6666114807        0.8148947108       -7.3797854054  CLST         463          1.0000000000
      1389       463  TIP3  H2           -2.8223724212        1.8273806075       -7.6922243561  CLST         463          1.0000000000
      1390       464  TIP3  OH2          -6.5919809398        6.2399777518        4.3954881802  CLST         464          1.0000000000
      1391       464  TIP3  H1           -6.3132291931        5.6660903875        4.9759326797  CLST         464          1.0000000000
      1392       464  TIP3  H2           -6.8530367715        6.9595328871        5.0666368786  CLST         464          1.0000000000
      1393       465  TIP3  OH2          -4.2397822049      -12.4257375911        5.9881347363  CLST         465          1.0000000000
      1394       465  TIP3  H1           -3.3372275377      -12.8168115130        5.9117330659  CLST         465          1.0000000000
      1395       465  TIP3  H2           -3.9846836888      -11.5455499251        6.1397330217  CLST         465          1.0000000000
      1396       466  TIP3  OH2          -2.3189277487        9.1042997929       -4.3613471558  CLST         466          1.0000000000
      1397       466  TIP3  H1           -2.9571819075        9.2194159591       -5.1603482854  CLST         466          1.0000000000
      1398       466  TIP3  H2           -2.4630606135        9.9634644945       -3.9680512589  CLST         466          1.0000000000
      1399       467  TIP3  OH2           8.4048491161        5.9747108817        4.5954186571  CLST         467          1.0000000000
      1400       467  TIP3  H1            8.6568128669        6.3768199482        5.4474426406  CLST         467          1.0000000000
      1401       467  TIP3  H2            8.1571468317        6.7409612348        4.0405005532  CLST         467          1.0000000000
      1402       468  TIP3  OH2          -0.4913084385      -12.2695900883       10.5386491572  CLST         468          1.0000000000
      1403       468  TIP3  H1           -0.9583533741      -11.7899077644       11.2499079710  CLST         468          1.0000000000
      1404       468  TIP3  H2            0.4441751395      -12.0687229780       10.5487627901  CLST         468          1.0000000000
      1405       469  TIP3  OH2           5.4361018324        8.3513184163       14.0653512637  CLST         469          1.0000000000
      1406       469  TIP3  H1            6.2978389039        8.3943150965       13.7020058033  CLST         469          1.0000000000
      1407       469  TIP3  H2            4.8893421111        9.0550615024       13.7650207203  CLST         469          1.0000000000
      1408       470  TIP3  OH2         -11.2409075047       12.5918974273        0.6664879459  CLST         470          1.0000000000
      1409       470  TIP3  H1          -11.1827209555       12.5346868085       -0.3299331626  CLST         470          1.0000000000
      1410       470  TIP3  H2          -11.5840991190       11.7077380471        1.0099940770  CLST         470          1.0000000000
      1411       471  TIP3  OH2          -4.3364335797        9.5284170648       -9.1640814985  CLST         471          1.0000000000
      1412       471  TIP3  H1           -4.4797661835        8.5729418266       -9.2553290530  CLST         471          1.0000000000
      1413       471  TIP3  H2           -4.8844654754        9.8958210194       -9.8881353480  CLST         471          1.0000000000
      1414       472  TIP3  OH2         -11.8350114352        3.8475113862        2.7935603493  CLST         472          1.0000000000
      1415       472  TIP3  H1          -12.4103544199        3.1155116858        3.1695382757  CLST         472          1.0000000000
      1416       472  TIP3  H2          -11.6042045001        3.3988487405        1.9652202019  CLST         472          1.0000000000
      1417       473  TIP3  OH2           5.2784183001        0.6659551904       10.1851395863  CLST         473          1.0000000000
      1418       473  TIP3  H1            5.8007997283        1.4028422157       10.5232219086  CLST         473          1.0000000000
      1419       473  TIP3  H2            4.4340295448        1.1147751041       10.0105395407  CLST         473          1.0000000000
      1420       474  TIP3  OH2           1.1955202546        1.7983523481        1.5041439338  CLST         474          1.0000000000
      1421       474  TIP3  H1            0.1747991809        1.6893038516        1.5195416795  CLST         474          1.0000000000
      1422       474  TIP3  H2            1.3533796004        0.9522117224        1.1391800601  CLST         474          1.0000000000
      1423       475  TIP3  OH2           6.0016442912       -8.6697640582       12.0157701575  CLST         475          1.0000000000
      1424       475  TIP3  H1            6.9622110180       -8.4829429462       12.1913409085  CLST         475          1.0000000000
      1425       475  TIP3  H2            6.1388904452       -9.1801312172       11.1817933559  CLST         475          1.0000000000
      1426       476  TIP3  OH2         -11.6839114246       -8.8078063422        0.0811202747  CLST         476          1.0000000000
      1427       476  TIP3  H1          -11.8876330012       -7.9312364779       -0.4128187945  CLST         476          1.0000000000
      1428       476  TIP3  H2          -10.9840910196       -8.9793184498       -0.5615381947  CLST         476          1.0000000000
      1429       477  TIP3  OH2         -12.5960098434        3.7247570066      -13.4842822281  CLST         477          1.0000000000
      1430       477  TIP3  H1          -13.0948090679        2.9001608380      -13.5549431680  CLST         477          1.0000000000
      1431       477  TIP3  H2          -11.8849968059        3.4239267996      -14.0014275159  CLST         477          1.0000000000
      1432       478  TIP3  OH2          -3.9112559025        6.6591023630      -10.5343850334  CLST         478          1.0000000000
      1433       478  TIP3  H1           -4.1876184398        6.1715694733      -11.3792417156  CLST         478          1.0000000000
      1434       478  TIP3  H2           -3.4223069799        7.3598834153      -11.0473567256  CLST         478          1.0000000000
      1435       479  TIP3  OH2           7.7704111661       -1.3543580708       -8.6132569194  CLST         479          1.0000000000
      1436       479  TIP3  H1            8.6259399246       -1.1149274962       -8.1915920453  CLST         479          1.0000000000
      1437       479  TIP3  H2            7.1748808683       -1.0221348867       -7.8767823315  CLST         479          1.0000000000
      1438       480  TIP3  OH2          -6.1111042358        7.6464370534        0.0262464279  CLST         480          1.0000000000
      1439       480  TIP3  H1           -5.1954929542        7.8292407725       -0.3484165879  CLST         480          1.0000000000
      1440       480  TIP3  H2           -5.9531188180        6.6840113406        0.2421729605  CLST         480          1.0000000000
      1441       481  TIP3  OH2          -3.0326808072        2.5364182181       11.7940049647  CLST         481          1.0000000000
      1442       481  TIP3  H1           -2.1082590420        2.4410004618       11.4989520672  CLST         481          1.0000000000
      1443       481  TIP3  H2           -3.1322768076        1.7652222120       12.2812021485  CLST         481          1.0000000000
      1444       482  TIP3  OH2          -8.1457520736       11.4524230029       -7.5153315408  CLST         482          1.0000000000
      1445       482  TIP3  H1           -8.8114858391       11.2296386504       -8.2007066361  CLST         482          1.0000000000
      1446       482  TIP3  H2           -7.4721822522       11.7966441788       -8.0509311285  CLST         482          1.0000000000
      1447       483  TIP3  OH2           6.2345280119       -5.9919935198       12.4866714298  CLST         483          1.0000000000
      1448       483  TIP3  H1            5.8017526485       -6.8919954777       12.5345396542  CLST         483          1.0000000000
      1449       483  TIP3  H2            6.2185046922       -5.8193049314       11.5331621879  CLST         483          1.0000000000
      1450       484  TIP3  OH2           6.8265555652       -3.0778968596        2.8963582795  CLST         484          1.0000000000
      1451       484  TIP3  H1            5.8534620652       -3.3140881926        2.9516493350  CLST         484          1.0000000000
      1452       484  TIP3  H2            6.7429960909       -2.3883270421        3.6119513965  CLST         484          1.0000000000
      1453       485  TIP3  OH2         -11.6412227990        4.5504795757        9.9776857660  CLST         485          1.0000000000
      1454       485  TIP3  H1          -11.1308295269        3.7210126129        9.8460856772  CLST         485          1.0000000000
      1455       485  TIP3  H2          -12.3914379440        4.4221882212        9.3023899635  CLST         485          1.0000000000
      1456       486  TIP3  OH2           8.4010148230       -7.2263465222       13.6007253034  CLST         486          1.0000000000
      1457       486  TIP3  H1            8.6973882965       -7.0848455077       14.4337638918  CLST         486          1.0000000000
      1458       486  TIP3  H2            7.8191282073       -6.5139117906       13.3564226926  CLST         486          1.0000000000
      1459       487  TIP3  OH2          12.2787343395       -8.4010013243        6.0543241784  CLST         487          1.0000000000
      1460       487  TIP3  H1           11.2659030389       -8.3475897681        5.9331891722  CLST         487          1.0000000000
      1461       487  TIP3  H2           12.2540020031       -8.2369884239        7.0217166129  CLST         487          1.0000000000
      1462       488  TIP3  OH2          14.8928950644        8.5861888035        7.5165150471  CLST         488          1.0000000000
      1463       488  TIP3  H1           15.1773594670        7.5447248595        7.5511163376  CLST         488          1.0000000000
      1464       488  TIP3  H2           13.9151438725        7.5501944387        8.4439047860  CLST         488          1.0000000000
      1465       489  TIP3  OH2          -6.0733200729      -10.7790351634       11.8285626091  CLST         489          1.0000000000
      1466       489  TIP3  H1           -6.5383978403       -9.9740249165       11.3864548666  CLST         489          1.0000000000
      1467       489  TIP3  H2           -7.0823846494      -11.3064056339       10.8445359080  CLST         489          1.0000000000
      1468       490  TIP3  OH2           6.6111256917      -13.1975074053        2.2032219201  CLST         490          1.0000000000
      1469       490  TIP3  H1            6.5228847088      -12.5683011369        2.9170620644  CLST         490          1.0000000000
      1470       490  TIP3  H2            7.0377068386      -13.8105941683        2.8292366464  CLST         490          1.0000000000
      1471       491  TIP3  OH2           2.8679772883       -9.2850970503        5.0578779624  CLST         491          1.0000000000
      1472       491  TIP3  H1            2.1122194210       -9.1070544110        5.6370044055  CLST         491          1.0000000000
      1473       491  TIP3  H2            2.3786162415       -9.6880030714        4.3201511763  CLST         491          1.0000000000
      1474       492  TIP3  OH2          -0.2829253677       -6.6302463595       12.1354769310  CLST         492          1.0000000000
      1475       492  TIP3  H1           -0.2469409318       -8.1777705642       11.8152515809  CLST         492          1.0000000000
      1476       492  TIP3  H2           -1.4590328559       -7.2671348033       11.1264019571  CLST         492          1.0000000000
      1477       493  TIP3  OH2           3.2351051810       10.9377124341        7.0402453550  CLST         493          1.0000000000
      1478       493  TIP3  H1            3.9953679910       10.8814812166        7.6609729401  CLST         493          1.0000000000
      1479       493  TIP3  H2            2.5738822080       10.5362019106        7.6569897756  CLST         493          1.0000000000
      1480       494  TIP3  OH2          -9.1739357978        5.3078258801       -0.7623944178  CLST         494          1.0000000000
      1481       494  TIP3  H1           -9.4582514789        5.9948663172       -1.4146379535  CLST         494          1.0000000000
      1482       494  TIP3  H2           -9.5509765718        5.8404934479        0.0347709737  CLST         494          1.0000000000
      1483       495  TIP3  OH2           4.8399802661       -6.7848771063       -2.0591333366  CLST         495          1.0000000000
      1484       495  TIP3  H1            5.5389843399       -6.2705551759       -2.6170447377  CLST         495          1.0000000000
      1485       495  TIP3  H2            5.4732904274       -7.4183887188       -1.6210549063  CLST         495          1.0000000000
      1486       496  TIP3  OH2         -12.7823413230      -10.6420749824        7.5720750909  CLST         496          1.0000000000
      1487       496  TIP3  H1          -13.5599354559      -11.1328585150        7.8131047015  CLST         496          1.0000000000
      1488       496  TIP3  H2          -12.5751385029      -11.2842414961        6.8450263935  CLST         496          1.0000000000
      1489       497  TIP3  OH2          -9.7050672376      -13.0785129848       -7.1649493008  CLST         497          1.0000000000
      1490       497  TIP3  H1          -10.2765942196      -13.8238675218       -7.0643754785  CLST         497          1.0000000000
      1491       497  TIP3  H2          -10.1156090930      -12.2892459464       -7.5503084594  CLST         497          1.0000000000
      1492       498  TIP3  OH2          -5.6773091085        0.5860761610      -11.2818023274  CLST         498          1.0000000000
      1493       498  TIP3  H1           -5.9492638355        0.7585045572      -12.2004545344  CLST         498          1.0000000000
      1494       498  TIP3  H2           -5.4456318764        1.4738686908      -10.9474096915  CLST         498          1.0000000000
      1495       499  TIP3  OH2          11.4902113114        6.6019304042        3.5003413670  CLST         499          1.0000000000
      1496       499  TIP3  H1           11.9295882532        6.9867061752        2.7096470240  CLST         499          1.0000000000
      1497       499  TIP3  H2           11.1812214741        7.3661344640        4.0129684435  CLST         499          1.0000000000
      1498       500  TIP3  OH2           2.3875561107       -8.7123312448      -13.1973712481  CLST         500          1.0000000000
      1499       500  TIP3  H1            1.8459221369       -9.1650306311      -13.8570718889  CLST         500          1.0000000000
      1500       500  TIP3  H2            2.6517268933       -9.5747666824      -12.7316682426  CLST         500          1.0000000000
      1501       501  TIP3  OH2           1.2886966343      -10.9172223254       13.9707783715  CLST         501          1.0000000000
      1502       501  TIP3  H1            1.4937316424      -11.7658014318       13.5774216381  CLST         501          1.0000000000
      1503       501  TIP3  H2            2.1646477799      -10.5541239856       14.0521519802  CLST         501          1.0000000000
      1504       502  TIP3  OH2           6.0987000142        3.5903253783        9.6870488418  CLST         502          1.0000000000
      1505       502  TIP3  H1            6.6302062442        3.9176783452       10.4331573310  CLST         502          1.0000000000
      1506       502  TIP3  H2            6.8212071595        3.2451612776        9.1200654181  CLST         502          1.0000000000
      1507       503  TIP3  OH2          10.3574663434       -0.8337351078        0.2474255182  CLST         503          1.0000000000
      1508       503  TIP3  H1           11.3226599247       -0.6699916595        0.3348556804  CLST         503          1.0000000000
      1509       503  TIP3  H2           10.0139175017        0.0858482185        0.2681632427  CLST         503          1.0000000000
      1510       504  TIP3  OH2           8.2222331542      -13.7718616982       10.9220435241  CLST         504          1.0000000000
      1511       504  TIP3  H1            8.5705861907      -13.5322406032       10.0449856183  CLST         504          1.0000000000
      1512       504  TIP3  H2            8.7205852408      -14.5032810135       11.1566126234  CLST         504          1.0000000000
      1513       505  TIP3  OH2           3.6360932675      -10.9516997605       -5.6473359942  CLST         505          1.0000000000
      1514       505  TIP3  H1            3.4983405607      -10.3285815475       -6.4059153641  CLST         505          1.0000000000
      1515       505  TIP3  H2            3.0873059764      -10.5278593949       -5.0193951694  CLST         505          1.0000000000
      1516       506  TIP3  OH2          -9.1311577937       -3.2757178127       -7.9104997101  CLST         506          1.0000000000
      1517       506  TIP3  H1           -8.7775376150       -2.2877109418       -7.8930324267  CLST         506          1.0000000000
      1518       506  TIP3  H2           -9.8803478682       -3.0717210988       -8.4993564123  CLST         506          1.0000000000
      1519       507  TIP3  OH2          11.3435871647        9.7304250879      -12.9487262758  CLST         507          1.0000000000
      1520       507  TIP3  H1           11.7260933313        9.7170369721      -13.6854411275  CLST         507          1.0000000000
      1521       507  TIP3  H2           11.1330528575        8.8546214453      -12.4938849029  CLST         507          1.0000000000
      1522       508  TIP3  OH2           9.0779753892       12.1842147748        8.6542701996  CLST         508          1.0000000000
      1523       508  TIP3  H1            8.7974514817       12.4928502409        7.7448926537  CLST         508          1.0000000000
      1524       508  TIP3  H2           10.0363437500       12.3707681592        8.4780128873  CLST         508          1.0000000000
      1525       509  TIP3  OH2          -0.6709082906       -1.4357880519      -11.3797643033  CLST         509          1.0000000000
      1526       509  TIP3  H1           -1.6525138257       -1.6167873433      -11.4234562073  CLST         509          1.0000000000
      1527       509  TIP3  H2           -0.7060194956       -0.5553098368      -10.9330336416  CLST         509          1.0000000000
      1528       510  TIP3  OH2           8.1588451039        2.1364322468       11.4539547796  CLST         510          1.0000000000
      1529       510  TIP3  H1            7.9948727883        1.1417458774       11.5551790490  CLST         510          1.0000000000
      1530       510  TIP3  H2            9.1196616035        2.1974279920       11.2240651104  CLST         510          1.0000000000
      1531       511  TIP3  OH2          -8.7559393284       -5.9672172326       -0.7910900425  CLST         511          1.0000000000
      1532       511  TIP3  H1           -9.7315259616       -6.1190267143       -0.7677746362  CLST         511          1.0000000000
      1533       511  TIP3  H2           -8.6205949799       -5.1653819637       -1.2433164000  CLST         511          1.0000000000
      1534       512  TIP3  OH2          10.1857888784        7.0389515686        6.9954519757  CLST         512          1.0000000000
      1535       512  TIP3  H1           10.2695378788        7.8551652910        7.5895867219  CLST         512          1.0000000000
      1536       512  TIP3  H2           10.4103366662        7.5711403816        6.1467221277  CLST         512          1.0000000000
      1537       513  TIP3  OH2         -11.6910732570       10.5050823834        9.3400839138  CLST         513          1.0000000000
      1538       513  TIP3  H1          -11.1776904053       11.3134601375        9.6823371481  CLST         513          1.0000000000
      1539       513  TIP3  H2          -11.4166162942        9.9619590770       10.1416270179  CLST         513          1.0000000000
      1540       514  TIP3  OH2          -4.8067156452        5.1024482409        0.0189932434  CLST         514          1.0000000000
      1541       514  TIP3  H1           -3.9678337390        5.4728974513        0.3979059072  CLST         514          1.0000000000
      1542       514  TIP3  H2           -4.5511466054        5.1027985124       -0.9379523109  CLST         514          1.0000000000
      1543       515  TIP3  OH2          -0.8429802180        1.0882027587       -4.1493045753  CLST         515          1.0000000000
      1544       515  TIP3  H1           -1.7089106755        1.5375323142       -4.2069628917  CLST         515          1.0000000000
      1545       515  TIP3  H2           -0.1670432716        1.6638458603       -4.5240962716  CLST         515          1.0000000000
      1546       516  TIP3  OH2          -7.3453102728       -8.5893240397        6.5132803991  CLST         516          1.0000000000
      1547       516  TIP3  H1           -7.4985511112       -8.6409225099        5.5466197093  CLST         516          1.0000000000
      1548       516  TIP3  H2           -7.9084820140       -7.7524217239        6.6766508490  CLST         516          1.0000000000
      1549       517  TIP3  OH2           0.6194794579       11.0219569408       11.6211545344  CLST         517          1.0000000000
      1550       517  TIP3  H1            0.4024583783       10.5038409923       10.8283697697  CLST         517          1.0000000000
      1551       517  TIP3  H2           -0.3379544882       11.2574672709       11.7301157710  CLST         517          1.0000000000
      1552       518  TIP3  OH2         -11.5575413414       -3.6583830638      -11.3295129414  CLST         518          1.0000000000
      1553       518  TIP3  H1          -11.9635881207       -3.0008075787      -11.9194684552  CLST         518          1.0000000000
      1554       518  TIP3  H2          -10.6668430519       -3.7623164221      -11.6973554422  CLST         518          1.0000000000
      1555       519  TIP3  OH2           2.2253424200        3.4233407320        3.3928725158  CLST         519          1.0000000000
      1556       519  TIP3  H1            2.0089043082        4.2273047633        2.8682272407  CLST         519          1.0000000000
      1557       519  TIP3  H2            1.7613910405        2.7898049849        2.7970485436  CLST         519          1.0000000000
      1558       520  TIP3  OH2         -10.2308711650        6.1805565898        8.1341638315  CLST         520          1.0000000000
      1559       520  TIP3  H1          -10.5064690487        5.6830268220        7.3798832235  CLST         520          1.0000000000
      1560       520  TIP3  H2          -10.8031242586        5.7158712510        8.8275093631  CLST         520          1.0000000000
      1561       521  TIP3  OH2           8.2699929107       -8.9478508686       -9.6487739606  CLST         521          1.0000000000
      1562       521  TIP3  H1            8.4422536406       -9.5010136573      -10.4411073465  CLST         521          1.0000000000
      1563       521  TIP3  H2            8.2516270470       -8.0822663452      -10.1531538139  CLST         521          1.0000000000
      1564       522  TIP3  OH2          -5.4160598564       -6.9859578628        8.0104526076  CLST         522          1.0000000000
      1565       522  TIP3  H1           -6.0423275583       -7.7033905090        7.8718070216  CLST         522          1.0000000000
      1566       522  TIP3  H2           -4.4838577853       -7.2003955014        8.2540787061  CLST         522          1.0000000000
      1567       523  TIP3  OH2          -4.0186017982       11.9286439227      -13.6859234449  CLST         523          1.0000000000
      1568       523  TIP3  H1           -3.1390954919       11.6704780905      -13.3221131488  CLST         523          1.0000000000
      1569       523  TIP3  H2           -3.8215222504       12.6629016088      -14.2980522998  CLST         523          1.0000000000
      1570       524  TIP3  OH2           6.8790903418        3.8865924534       -1.6475776462  CLST         524          1.0000000000
      1571       524  TIP3  H1            7.0289583369        3.1476836596       -2.2219814786  CLST         524          1.0000000000
      1572       524  TIP3  H2            5.8892908330        4.0111861711       -1.8214594607  CLST         524          1.0000000000
      1573       525  TIP3  OH2           0.5439268822        6.9138407848       -2.5088382325  CLST         525          1.0000000000
      1574       525  TIP3  H1            0.8460762747        6.4364503752       -3.3377060591  CLST         525          1.0000000000
      1575       525  TIP3  H2            0.3801301981        6.0988934868       -1.9832010405  CLST         525          1.0000000000
      1576       526  TIP3  OH2           7.0420193964       -5.5174433855       -3.5353768394  CLST         526          1.0000000000
      1577       526  TIP3  H1            7.1744135259       -5.7249892966       -4.4679314099  CLST         526          1.0000000000
      1578       526  TIP3  H2            7.9279291052       -5.5298477118       -3.1672097758  CLST         526          1.0000000000
      1579       527  TIP3  OH2           0.4690088379        7.2469947547        4.0185509180  CLST         527          1.0000000000
      1580       527  TIP3  H1            1.1807334340        7.2593803966        4.6758715716  CLST         527          1.0000000000
      1581       527  TIP3  H2            0.4157854753        8.2639179358        4.0560518714  CLST         527          1.0000000000
      1582       528  TIP3  OH2          -2.8331533681       10.1682256101        8.7773929390  CLST         528          1.0000000000
      1583       528  TIP3  H1           -3.2859419425        9.5855353694        9.4897343441  CLST         528          1.0000000000
      1584       528  TIP3  H2           -3.6545833798       10.5652885263        8.4273077545  CLST         528          1.0000000000
      1585       529  TIP3  OH2          -6.0757627228       12.3341692372       -9.2506835327  CLST         529          1.0000000000
      1586       529  TIP3  H1           -5.2093474627       12.5346313250       -8.8956931174  CLST         529          1.0000000000
      1587       529  TIP3  H2           -5.9779060333       12.2331477309      -10.2151137018  CLST         529          1.0000000000
      1588       530  TIP3  OH2          -4.4203420778       -5.5461804704      -13.2329878200  CLST         530          1.0000000000
      1589       530  TIP3  H1           -4.2686198689       -6.5201344844      -13.0736761012  CLST         530          1.0000000000
      1590       530  TIP3  H2           -3.4645969022       -5.1917678630      -13.1329585336  CLST         530          1.0000000000
      1591       531  TIP3  OH2         -11.5699962804       -0.5137872855       10.2226180588  CLST         531          1.0000000000
      1592       531  TIP3  H1          -11.8887318474       -0.4130158653       10.9760339511  CLST         531          1.0000000000
      1593       531  TIP3  H2          -12.2254151759       -1.0536813302        9.9006912674  CLST         531          1.0000000000
      1594       532  TIP3  OH2         -12.0833490122       -3.0911435670       -8.7525634867  CLST         532          1.0000000000
      1595       532  TIP3  H1          -12.3450917566       -3.8858413658       -8.2536892925  CLST         532          1.0000000000
      1596       532  TIP3  H2          -12.0209340180       -3.4284943363       -9.6638398274  CLST         532          1.0000000000
      1597       533  TIP3  OH2          -2.8103731036       -7.3010647975        8.8364403787  CLST         533          1.0000000000
      1598       533  TIP3  H1           -2.1514300074       -7.9734858482        8.5729987971  CLST         533          1.0000000000
      1599       533  TIP3  H2           -2.2855398261       -6.3282540030        8.5821607827  CLST         533          1.0000000000
      1600       534  TIP3  OH2           0.3019599764      -13.2238645588       -7.7329497561  CLST         534          1.0000000000
      1601       534  TIP3  H1            0.6883953681      -13.1216843115       -8.6186389700  CLST         534          1.0000000000
      1602       534  TIP3  H2            1.2117743668      -13.2608369270       -7.3097092532  CLST         534          1.0000000000
      1603       535  TIP3  OH2           2.8114831109        3.0929240249       -7.4481877360  CLST         535          1.0000000000
      1604       535  TIP3  H1            3.3991932356        2.6021047945       -6.6664292673  CLST         535          1.0000000000
      1605       535  TIP3  H2            1.9144773764        2.9867811612       -6.9835953635  CLST         535          1.0000000000
      1606       536  TIP3  OH2           8.0186767066      -12.6482450852       -3.3389834349  CLST         536          1.0000000000
      1607       536  TIP3  H1            7.4593096616      -12.8012314622       -4.0454236438  CLST         536          1.0000000000
      1608       536  TIP3  H2            8.7097066415      -13.2834983476       -3.3273352011  CLST         536          1.0000000000
      1609       537  TIP3  OH2          11.7368192602       -2.7541105984       -7.5280358743  CLST         537          1.0000000000
      1610       537  TIP3  H1           11.6012638772       -1.5191198821       -6.9104117314  CLST         537          1.0000000000
      1611       537  TIP3  H2           13.4030431347       -2.9409205215       -5.7353417737  CLST         537          1.0000000000
      1612       538  TIP3  OH2          -5.0964996853      -10.9036516672        0.7682654276  CLST         538          1.0000000000
      1613       538  TIP3  H1           -4.2817051132      -11.1174417044        1.3289653592  CLST         538          1.0000000000
      1614       538  TIP3  H2           -4.9205869466       -9.9402669330        0.6151071979  CLST         538          1.0000000000
      1615       539  TIP3  OH2           2.5425077361       -5.2356212620        0.8506813893  CLST         539          1.0000000000
      1616       539  TIP3  H1            1.6010382292       -5.4489032789        1.1438994065  CLST         539          1.0000000000
      1617       539  TIP3  H2            2.3390466075       -5.5526877536       -0.0761564457  CLST         539          1.0000000000
      1618       540  TIP3  OH2           4.0120623129       -6.7910894935        4.6950976711  CLST         540          1.0000000000
      1619       540  TIP3  H1            3.6967801718       -7.6851268707        4.9741759729  CLST         540          1.0000000000
      1620       540  TIP3  H2            4.0590801218       -6.9924592186        3.7172936947  CLST         540          1.0000000000
      1621       541  TIP3  OH2          -5.4382209084       10.4251732423        2.3006713955  CLST         541          1.0000000000
      1622       541  TIP3  H1           -5.9961523099       10.4705071984        3.1101363605  CLST         541          1.0000000000
      1623       541  TIP3  H2           -4.7530436825       11.1231654424        2.5039573617  CLST         541          1.0000000000
      1624       542  TIP3  OH2         -10.6922303348       14.2528294683        5.4628333277  CLST         542          1.0000000000
      1625       542  TIP3  H1          -11.0521576774       15.0709528440        5.3990670470  CLST         542          1.0000000000
      1626       542  TIP3  H2          -10.4348769319       13.8986894269        4.2622497793  CLST         542          1.0000000000
      1627       543  TIP3  OH2         -11.0176102194       11.0539422662       -2.1842282145  CLST         543          1.0000000000
      1628       543  TIP3  H1          -11.9020854580       10.8639999238       -2.4057720569  CLST         543          1.0000000000
      1629       543  TIP3  H2          -10.6943561101       11.1815592981       -3.0762324151  CLST         543          1.0000000000
      1630       544  TIP3  OH2          -0.4490787662        5.5040637628       -5.6380768155  CLST         544          1.0000000000
      1631       544  TIP3  H1           -0.3026907385        5.1390194095       -6.5934943717  CLST         544          1.0000000000
      1632       544  TIP3  H2            0.3439315781        5.2036391914       -5.1718760830  CLST         544          1.0000000000
      1633       545  TIP3  OH2          -7.9373345210        2.4231105717      -12.4986212204  CLST         545          1.0000000000
      1634       545  TIP3  H1           -8.1051458094        2.0530119572      -13.3866874713  CLST         545          1.0000000000
      1635       545  TIP3  H2           -8.5313898511        3.2790683734      -12.4713191687  CLST         545          1.0000000000
      1636       546  TIP3  OH2           4.0350548795       11.0415752908       -2.3843245462  CLST         546          1.0000000000
      1637       546  TIP3  H1            4.2062691878        9.6507778066       -2.1344773208  CLST         546          1.0000000000
      1638       546  TIP3  H2            4.3274426381       10.9628778058       -0.7761574484  CLST         546          1.0000000000
      1639       547  TIP3  OH2          -3.4196825019       -1.8174036161      -11.2170083724  CLST         547          1.0000000000
      1640       547  TIP3  H1           -3.4025431139       -1.8746391912      -10.2643317060  CLST         547          1.0000000000
      1641       547  TIP3  H2           -4.1227492629       -1.1349492959      -11.3664121979  CLST         547          1.0000000000
      1642       548  TIP3  OH2          10.5617017297        2.4438269313        1.2314886164  CLST         548          1.0000000000
      1643       548  TIP3  H1            9.6200595997        2.3237232696        1.3957535676  CLST         548          1.0000000000
      1644       548  TIP3  H2           10.6152805566        3.2408955809        1.8468458727  CLST         548          1.0000000000
