* Geometry rescue: EQUI at step 17500
*
        1644  EXT
         1         1  TIP3  OH2           4.4884646453       -1.5749846135       -2.2387066434  CLST           1          1.0000000000
         2         1  TIP3  H1            4.7502410915       -1.8085606487       -1.2928155037  CLST           1          1.0000000000
         3         1  TIP3  H2            5.2917969557       -2.0163601019       -2.6722720402  CLST           1          1.0000000000
         4         2  TIP3  OH2          10.6470797111        7.5008135431      -11.7467421844  CLST           2          1.0000000000
         5         2  TIP3  H1           10.9389820712        7.1700400219      -10.8673989167  CLST           2          1.0000000000
         6         2  TIP3  H2            9.6478548834        7.3257904452      -11.6464144804  CLST           2          1.0000000000
         7         3  TIP3  OH2           8.8988834526        5.3746285425       -4.2046673338  CLST           3          1.0000000000
         8         3  TIP3  H1            9.2308138137        5.4922844548       -3.2685148110  CLST           3          1.0000000000
         9         3  TIP3  H2            8.3718407890        6.1946474221       -4.3396601650  CLST           3          1.0000000000
        10         4  TIP3  OH2          -2.8047623385        6.6502242869       10.1555685076  CLST           4          1.0000000000
        11         4  TIP3  H1           -3.5052656080        7.1027005644        9.6085611899  CLST           4          1.0000000000
        12         4  TIP3  H2           -2.8655111656        7.3257980938       10.8677194385  CLST           4          1.0000000000
        13         5  TIP3  OH2           9.2365567244        6.1396055508       10.4891065451  CLST           5          1.0000000000
        14         5  TIP3  H1            8.7588171746        5.4481579182       11.0455579519  CLST           5          1.0000000000
        15         5  TIP3  H2            8.8300275931        5.8652942422        9.6327980593  CLST           5          1.0000000000
        16         6  TIP3  OH2          10.5332519930       -5.9794544636      -11.6143456167  CLST           6          1.0000000000
        17         6  TIP3  H1           10.9963511488       -5.3896428503      -10.9203233882  CLST           6          1.0000000000
        18         6  TIP3  H2           10.4874887646       -5.1902433933      -12.2602950343  CLST           6          1.0000000000
        19         7  TIP3  OH2         -12.4001412743        8.3783369331        5.8103313525  CLST           7          1.0000000000
        20         7  TIP3  H1          -12.6824519458        9.2514602818        6.1959955241  CLST           7          1.0000000000
        21         7  TIP3  H2          -11.5222979634        8.3477182346        6.2646161319  CLST           7          1.0000000000
        22         8  TIP3  OH2          -4.3519651822       -8.3711435226        0.5816891214  CLST           8          1.0000000000
        23         8  TIP3  H1           -4.8509036339       -7.6401842390        0.9865077434  CLST           8          1.0000000000
        24         8  TIP3  H2           -3.6596443615       -7.9538414002        0.0646052101  CLST           8          1.0000000000
        25         9  TIP3  OH2           2.7293280642      -14.2542506225       -3.9640376924  CLST           9          1.0000000000
        26         9  TIP3  H1            1.8016474893      -14.1875198361       -3.7165226667  CLST           9          1.0000000000
        27         9  TIP3  H2            3.1709558717      -13.6934528038       -3.2564337628  CLST           9          1.0000000000
        28        10  TIP3  OH2         -14.1792728397       -1.4068649439       -0.3164466185  CLST          10          1.0000000000
        29        10  TIP3  H1          -13.9001868707       -1.6373120350       -1.2258003353  CLST          10          1.0000000000
        30        10  TIP3  H2          -13.8460408664       -2.1559725045        0.1865526710  CLST          10          1.0000000000
        31        11  TIP3  OH2           6.8963012561        6.7118194386       -1.9173948084  CLST          11          1.0000000000
        32        11  TIP3  H1            7.1091207707        5.7721436362       -2.1208627935  CLST          11          1.0000000000
        33        11  TIP3  H2            6.8887341615        7.0821310715       -2.8223643661  CLST          11          1.0000000000
        34        12  TIP3  OH2          -8.3434477030        2.6383414608        1.8792973313  CLST          12          1.0000000000
        35        12  TIP3  H1           -7.8439307616        2.9100920931        1.0661023727  CLST          12          1.0000000000
        36        12  TIP3  H2           -9.2372465669        2.6152541371        1.4407070705  CLST          12          1.0000000000
        37        13  TIP3  OH2           7.7588171695        2.4249036040        2.1313050417  CLST          13          1.0000000000
        38        13  TIP3  H1            7.4444957580        3.1724009395        1.5815370542  CLST          13          1.0000000000
        39        13  TIP3  H2            7.7424649392        2.7610264387        3.0596498259  CLST          13          1.0000000000
        40        14  TIP3  OH2          -0.4110551074        2.0541160605        7.8657381912  CLST          14          1.0000000000
        41        14  TIP3  H1           -0.1305773618        2.8451498382        7.3129188548  CLST          14          1.0000000000
        42        14  TIP3  H2            0.2422561090        1.4190122215        7.5518692985  CLST          14          1.0000000000
        43        15  TIP3  OH2          -8.8685511181       -3.6772633563      -12.7393857042  CLST          15          1.0000000000
        44        15  TIP3  H1           -7.9921164500       -3.4580336416      -13.1329251383  CLST          15          1.0000000000
        45        15  TIP3  H2           -8.4315706588       -4.4365700781      -12.2190069514  CLST          15          1.0000000000
        46        16  TIP3  OH2          -3.8725522439      -12.8092038712       -6.2425222244  CLST          16          1.0000000000
        47        16  TIP3  H1           -4.3553961940      -12.9221830008       -5.3423491241  CLST          16          1.0000000000
        48        16  TIP3  H2           -2.9764936028      -12.9450893593       -5.8720713650  CLST          16          1.0000000000
        49        17  TIP3  OH2           4.9353037254      -13.1256511365       -8.4813175881  CLST          17          1.0000000000
        50        17  TIP3  H1            5.3874686722      -13.1776814083       -7.5824406224  CLST          17          1.0000000000
        51        17  TIP3  H2            4.0385791946      -13.2885497943       -8.0748530893  CLST          17          1.0000000000
        52        18  TIP3  OH2         -11.8082113555       -6.7545953758       -1.5209328780  CLST          18          1.0000000000
        53        18  TIP3  H1          -12.1022356532       -5.8583656765       -1.9411562962  CLST          18          1.0000000000
        54        18  TIP3  H2          -11.8090228640       -7.1408653774       -2.4427642919  CLST          18          1.0000000000
        55        19  TIP3  OH2          10.8470784567       -0.0335228157        9.6322187660  CLST          19          1.0000000000
        56        19  TIP3  H1           10.3962392337       -0.8466196864        9.9677982331  CLST          19          1.0000000000
        57        19  TIP3  H2           10.8624259798       -0.2146172876        8.6643454179  CLST          19          1.0000000000
        58        20  TIP3  OH2         -13.3650493232        1.4067579510        2.8213125606  CLST          20          1.0000000000
        59        20  TIP3  H1          -13.1409553096        1.2380977977        1.8816022950  CLST          20          1.0000000000
        60        20  TIP3  H2          -14.3196826542        1.3432765181        2.7954313220  CLST          20          1.0000000000
        61        21  TIP3  OH2         -10.0807727976       12.6015412560       -5.2513907918  CLST          21          1.0000000000
        62        21  TIP3  H1          -10.6962476971       13.2917707887       -5.4710647461  CLST          21          1.0000000000
        63        21  TIP3  H2           -9.2565756976       12.5059024422       -5.7527284551  CLST          21          1.0000000000
        64        22  TIP3  OH2           2.7075605315       12.2238056442       -6.5212128272  CLST          22          1.0000000000
        65        22  TIP3  H1            3.3506949462       11.6570441468       -6.0835426541  CLST          22          1.0000000000
        66        22  TIP3  H2            2.7810035700       12.8341689548       -5.6907017153  CLST          22          1.0000000000
        67        23  TIP3  OH2           5.5299017119       -1.6250303289       11.5165484100  CLST          23          1.0000000000
        68        23  TIP3  H1            5.0656607634       -2.2327482235       10.8887234315  CLST          23          1.0000000000
        69        23  TIP3  H2            5.0018145796       -0.8534590899       11.2889951742  CLST          23          1.0000000000
        70        24  TIP3  OH2          -0.0043102290        1.1196207370        4.4749469842  CLST          24          1.0000000000
        71        24  TIP3  H1            0.7220426304        0.9555171043        5.1384032382  CLST          24          1.0000000000
        72        24  TIP3  H2           -0.7020040590        0.5721837173        4.8861280635  CLST          24          1.0000000000
        73        25  TIP3  OH2           3.1813759833        2.0121564157       -2.5836330602  CLST          25          1.0000000000
        74        25  TIP3  H1            3.7177273632        1.6776790601       -1.8293191537  CLST          25          1.0000000000
        75        25  TIP3  H2            3.4970029004        2.9482641836       -2.5926767459  CLST          25          1.0000000000
        76        26  TIP3  OH2          11.3173216340        5.4141195862       -6.6096696228  CLST          26          1.0000000000
        77        26  TIP3  H1           10.6034460018        5.0293415048       -7.1251145685  CLST          26          1.0000000000
        78        26  TIP3  H2           10.9830374534        6.0907465428       -6.0193735671  CLST          26          1.0000000000
        79        27  TIP3  OH2         -10.2318273570        7.4985728796       -5.4661979605  CLST          27          1.0000000000
        80        27  TIP3  H1          -10.4206606128        7.8104692329       -4.5218352272  CLST          27          1.0000000000
        81        27  TIP3  H2          -10.7028178933        8.1562654951       -5.8806541956  CLST          27          1.0000000000
        82        28  TIP3  OH2          -4.2866164739      -10.1984178377       -6.7221548509  CLST          28          1.0000000000
        83        28  TIP3  H1           -4.2647474248      -11.1881648251       -6.5197803270  CLST          28          1.0000000000
        84        28  TIP3  H2           -5.1584257530       -9.9648853806       -6.4074137570  CLST          28          1.0000000000
        85        29  TIP3  OH2         -10.8475227767        7.6636078185       -2.6601169303  CLST          29          1.0000000000
        86        29  TIP3  H1          -10.1651184490        8.1454755309       -2.0464244851  CLST          29          1.0000000000
        87        29  TIP3  H2          -11.6929251163        8.3374378882       -2.3744188599  CLST          29          1.0000000000
        88        30  TIP3  OH2           8.8464051360      -10.3779930002       -2.2317119695  CLST          30          1.0000000000
        89        30  TIP3  H1            9.1694182827      -10.9796192859       -1.5121066200  CLST          30          1.0000000000
        90        30  TIP3  H2            8.4271544548      -11.1362081330       -2.7843922399  CLST          30          1.0000000000
        91        31  TIP3  OH2          -9.7938574808       -1.1406041063      -13.1714757432  CLST          31          1.0000000000
        92        31  TIP3  H1           -9.7609162390       -2.1119849873      -13.0316820483  CLST          31          1.0000000000
        93        31  TIP3  H2           -9.7733437585       -0.8515475971      -12.2396357571  CLST          31          1.0000000000
        94        32  TIP3  OH2          -8.6083598838       -6.5332391944        6.8587290424  CLST          32          1.0000000000
        95        32  TIP3  H1           -9.3902146237       -6.1725188047        7.3520517288  CLST          32          1.0000000000
        96        32  TIP3  H2           -8.7432613552       -5.9284252058        6.0691978212  CLST          32          1.0000000000
        97        33  TIP3  OH2          11.7887482288       -8.9222034023        8.8535929000  CLST          33          1.0000000000
        98        33  TIP3  H1           11.9031104688       -9.8650139008        9.1372110534  CLST          33          1.0000000000
        99        33  TIP3  H2           11.4971327205       -8.4873016161        9.6654089229  CLST          33          1.0000000000
       100        34  TIP3  OH2           4.0963627396       -3.9112137471        2.7722907349  CLST          34          1.0000000000
       101        34  TIP3  H1            3.6017323365       -4.1608353934        1.9618285183  CLST          34          1.0000000000
       102        34  TIP3  H2            3.7726836450       -4.5891957333        3.4017223224  CLST          34          1.0000000000
       103        35  TIP3  OH2           6.1187922631       -0.8927720864        4.5191908179  CLST          35          1.0000000000
       104        35  TIP3  H1            5.2485500736       -1.1069477481        4.9343429400  CLST          35          1.0000000000
       105        35  TIP3  H2            6.7340161025       -0.4507713438        5.1236976558  CLST          35          1.0000000000
       106        36  TIP3  OH2          -1.7315346054        1.3439699176        2.1882108370  CLST          36          1.0000000000
       107        36  TIP3  H1           -2.1847133757        0.5470651054        2.5303913932  CLST          36          1.0000000000
       108        36  TIP3  H2           -1.1397937862        1.3897044621        2.9573010434  CLST          36          1.0000000000
       109        37  TIP3  OH2          -4.3776652629       -8.1882268199      -12.9791394452  CLST          37          1.0000000000
       110        37  TIP3  H1           -5.1719659442       -8.3149538631      -12.4076448573  CLST          37          1.0000000000
       111        37  TIP3  H2           -4.0734634718       -9.0695099637      -13.2977407260  CLST          37          1.0000000000
       112        38  TIP3  OH2          -3.1622479762        2.1359605629       -4.4700069687  CLST          38          1.0000000000
       113        38  TIP3  H1           -2.9874734951        3.0404582714       -4.8460442477  CLST          38          1.0000000000
       114        38  TIP3  H2           -3.4112827520        1.7012591605       -5.3056007912  CLST          38          1.0000000000
       115        39  TIP3  OH2           1.6803553331      -10.7839978546        2.1201928044  CLST          39          1.0000000000
       116        39  TIP3  H1            1.5129254746      -11.4678956837        2.8424601428  CLST          39          1.0000000000
       117        39  TIP3  H2            0.7455643200      -10.4819826221        1.8372252071  CLST          39          1.0000000000
       118        40  TIP3  OH2          -7.0968525240       12.6067887510        8.3959258701  CLST          40          1.0000000000
       119        40  TIP3  H1           -7.9814236867       12.9904846066        8.0866611667  CLST          40          1.0000000000
       120        40  TIP3  H2           -6.5191136844       12.9410315130        7.7507021283  CLST          40          1.0000000000
       121        41  TIP3  OH2           9.7007587371       -2.2727457142      -11.2489456341  CLST          41          1.0000000000
       122        41  TIP3  H1            8.9357709864       -2.8699229610      -10.9393821250  CLST          41          1.0000000000
       123        41  TIP3  H2            9.2676514470       -1.4781384958      -10.9339536651  CLST          41          1.0000000000
       124        42  TIP3  OH2           9.7439153081       10.3243401546      -10.6363327920  CLST          42          1.0000000000
       125        42  TIP3  H1           10.6360498673       10.1713572557      -10.2609043744  CLST          42          1.0000000000
       126        42  TIP3  H2           10.1831028918       10.3453074885      -11.5701409777  CLST          42          1.0000000000
       127        43  TIP3  OH2          11.8831241594       12.7531042391        7.7871864196  CLST          43          1.0000000000
       128        43  TIP3  H1           12.5832954143       13.3230258165        7.5778014212  CLST          43          1.0000000000
       129        43  TIP3  H2           12.2921542114       11.9849701838        8.2150121051  CLST          43          1.0000000000
       130        44  TIP3  OH2           7.8438462387        1.0676969130        5.8936570670  CLST          44          1.0000000000
       131        44  TIP3  H1            8.0352489506        1.4282324445        6.8325816425  CLST          44          1.0000000000
       132        44  TIP3  H2            7.6098442710        1.9902642470        5.5936257621  CLST          44          1.0000000000
       133        45  TIP3  OH2           7.9111290100        9.4829070040        7.3969247015  CLST          45          1.0000000000
       134        45  TIP3  H1            7.4755570909        8.6384586093        7.6033023588  CLST          45          1.0000000000
       135        45  TIP3  H2            8.7079175664        9.4723851242        7.9802912270  CLST          45          1.0000000000
       136        46  TIP3  OH2          -5.7510270961       -3.2353589326      -12.8426476676  CLST          46          1.0000000000
       137        46  TIP3  H1           -5.5465132543       -4.2316748329      -13.0507690401  CLST          46          1.0000000000
       138        46  TIP3  H2           -4.8038007739       -3.1203174812      -12.5730202924  CLST          46          1.0000000000
       139        47  TIP3  OH2           1.3468133136       -6.5400212330      -10.9384215306  CLST          47          1.0000000000
       140        47  TIP3  H1            1.6977724155       -5.6137160001      -10.7458355075  CLST          47          1.0000000000
       141        47  TIP3  H2            1.1706689787       -6.4438750173      -11.8996917233  CLST          47          1.0000000000
       142        48  TIP3  OH2           5.0710560688        5.5450152500        1.0708007997  CLST          48          1.0000000000
       143        48  TIP3  H1            5.9568934393        5.2271064029        0.6653656103  CLST          48          1.0000000000
       144        48  TIP3  H2            5.3634138819        6.5348392178        1.1053349687  CLST          48          1.0000000000
       145        49  TIP3  OH2          -3.3846092265      -10.7566296749      -13.7505419757  CLST          49          1.0000000000
       146        49  TIP3  H1           -2.5583569566      -11.1188105080      -13.3829402291  CLST          49          1.0000000000
       147        49  TIP3  H2           -4.0293010783      -11.1916465933      -13.1556136195  CLST          49          1.0000000000
       148        50  TIP3  OH2           2.9096534430        3.7390838761        6.0507466436  CLST          50          1.0000000000
       149        50  TIP3  H1            2.0750368947        4.1317379141        6.4358094269  CLST          50          1.0000000000
       150        50  TIP3  H2            2.5756646385        3.6218243877        5.1004073228  CLST          50          1.0000000000
       151        51  TIP3  OH2          -6.3923319758      -10.0966561988       -4.6771086746  CLST          51          1.0000000000
       152        51  TIP3  H1           -6.4044669509       -9.9210685766       -3.7052756323  CLST          51          1.0000000000
       153        51  TIP3  H2           -6.5439678977      -11.0412650941       -4.7903781262  CLST          51          1.0000000000
       154        52  TIP3  OH2           9.1132553640       -5.7026592158       -0.1404904133  CLST          52          1.0000000000
       155        52  TIP3  H1            9.3181390635       -5.4670715042       -1.1053277320  CLST          52          1.0000000000
       156        52  TIP3  H2            9.0182341025       -4.7367149904        0.1652662497  CLST          52          1.0000000000
       157        53  TIP3  OH2          -9.5665344727       10.0234529828      -12.3753520149  CLST          53          1.0000000000
       158        53  TIP3  H1          -10.1681130268        9.9761260775      -13.2036789772  CLST          53          1.0000000000
       159        53  TIP3  H2           -8.5971743905        9.4925792715      -12.4976564667  CLST          53          1.0000000000
       160        54  TIP3  OH2           0.6430142548       -3.0351064336       -9.4591805933  CLST          54          1.0000000000
       161        54  TIP3  H1            1.5532609091       -3.1015206519       -9.8399143105  CLST          54          1.0000000000
       162        54  TIP3  H2            0.3075787859       -2.4253362790      -10.1631492152  CLST          54          1.0000000000
       163        55  TIP3  OH2           2.9531738397       -4.0556852585      -14.5192600293  CLST          55          1.0000000000
       164        55  TIP3  H1            3.1942339293       -4.9204286207      -14.1774593457  CLST          55          1.0000000000
       165        55  TIP3  H2            3.1075187830       -4.0898657344      -15.4952670835  CLST          55          1.0000000000
       166        56  TIP3  OH2          -9.9118106635       11.1509990396        5.6455997921  CLST          56          1.0000000000
       167        56  TIP3  H1          -10.0000308028       10.3134942202        6.1872773653  CLST          56          1.0000000000
       168        56  TIP3  H2          -10.2370678269       10.8877519534        4.7446265349  CLST          56          1.0000000000
       169        57  TIP3  OH2           1.6674189721      -13.4600967305        0.3360273725  CLST          57          1.0000000000
       170        57  TIP3  H1            2.0631092033      -12.5423790524        0.2730345935  CLST          57          1.0000000000
       171        57  TIP3  H2            2.4471721938      -13.8893543606       -0.1151179528  CLST          57          1.0000000000
       172        58  TIP3  OH2         -13.0393829815       10.6442869123        7.0279115315  CLST          58          1.0000000000
       173        58  TIP3  H1          -12.4876104303       11.3572182480        6.6236100554  CLST          58          1.0000000000
       174        58  TIP3  H2          -12.7664712225       10.8053565712        7.9685693695  CLST          58          1.0000000000
       175        59  TIP3  OH2         -11.5492752816       -2.6181689829        5.4910652589  CLST          59          1.0000000000
       176        59  TIP3  H1          -11.9738213794       -2.4834891700        6.3956172320  CLST          59          1.0000000000
       177        59  TIP3  H2          -11.5740553344       -1.6357583715        5.2417738194  CLST          59          1.0000000000
       178        60  TIP3  OH2           1.4505508433        9.4483957821        8.4537812238  CLST          60          1.0000000000
       179        60  TIP3  H1            0.5866545765        8.9330289909        8.2686921777  CLST          60          1.0000000000
       180        60  TIP3  H2            1.9155907985        8.6492741923        8.7545548648  CLST          60          1.0000000000
       181        61  TIP3  OH2           2.7825892394       -0.7010241598       -5.4643098252  CLST          61          1.0000000000
       182        61  TIP3  H1            3.2885475379       -1.5822123280       -5.4955078055  CLST          61          1.0000000000
       183        61  TIP3  H2            2.1400133383       -0.8488182023       -6.2081608118  CLST          61          1.0000000000
       184        62  TIP3  OH2           7.9630641214        8.5057124846       12.5308512686  CLST          62          1.0000000000
       185        62  TIP3  H1            7.9293620818        7.6379450681       12.1312682728  CLST          62          1.0000000000
       186        62  TIP3  H2            8.1771550949        9.2026330319       11.8770701731  CLST          62          1.0000000000
       187        63  TIP3  OH2           4.5178256662       -7.0285927296      -10.2932207688  CLST          63          1.0000000000
       188        63  TIP3  H1            3.6393229353       -6.9878612217      -10.7347097986  CLST          63          1.0000000000
       189        63  TIP3  H2            4.9912119896       -7.5600137860      -10.9962048173  CLST          63          1.0000000000
       190        64  TIP3  OH2          -2.3309581927       11.7616192455        5.3330583270  CLST          64          1.0000000000
       191        64  TIP3  H1           -2.4297853177       10.7722089734        5.4160934337  CLST          64          1.0000000000
       192        64  TIP3  H2           -1.5926906761       11.8132425650        6.0275956720  CLST          64          1.0000000000
       193        65  TIP3  OH2          10.9958033810       -4.3657482271       -5.4291350240  CLST          65          1.0000000000
       194        65  TIP3  H1           11.3695609304       -4.1244061864       -6.3017115870  CLST          65          1.0000000000
       195        65  TIP3  H2           10.6912494794       -3.4701036469       -5.2220302156  CLST          65          1.0000000000
       196        66  TIP3  OH2           6.2523819056       -9.9249900714        9.2523601473  CLST          66          1.0000000000
       197        66  TIP3  H1            5.5274670925       -9.5178985773        8.7349754779  CLST          66          1.0000000000
       198        66  TIP3  H2            6.9468118890       -9.2358155327        9.0954121106  CLST          66          1.0000000000
       199        67  TIP3  OH2         -11.4344802146       -7.5843422642       -4.0091699638  CLST          67          1.0000000000
       200        67  TIP3  H1          -10.6032403931       -7.1422752823       -4.3186045661  CLST          67          1.0000000000
       201        67  TIP3  H2          -11.8262113852       -8.0366776107       -4.7417606439  CLST          67          1.0000000000
       202        68  TIP3  OH2          -0.7460762789       -5.5173128693        5.4105335383  CLST          68          1.0000000000
       203        68  TIP3  H1            0.2828946546       -5.3694408773        5.5721024901  CLST          68          1.0000000000
       204        68  TIP3  H2           -0.9985071019       -5.3964771370        6.3705318001  CLST          68          1.0000000000
       205        69  TIP3  OH2           7.9554832400       11.6335618562       -8.7367933497  CLST          69          1.0000000000
       206        69  TIP3  H1            8.5131783547       11.3169436018       -9.5310811530  CLST          69          1.0000000000
       207        69  TIP3  H2            8.7702244196       11.8469619688       -8.1306449905  CLST          69          1.0000000000
       208        70  TIP3  OH2          -0.8563585792      -12.5290092218       -0.4585251398  CLST          70          1.0000000000
       209        70  TIP3  H1            0.1108495147      -12.6988985507       -0.4839723115  CLST          70          1.0000000000
       210        70  TIP3  H2           -0.9674134922      -12.8226850675        0.4820625576  CLST          70          1.0000000000
       211        71  TIP3  OH2         -10.2411150784       -7.4742325325        1.9067071656  CLST          71          1.0000000000
       212        71  TIP3  H1          -10.7435909729       -6.7086174066        2.2097471832  CLST          71          1.0000000000
       213        71  TIP3  H2          -10.6941656375       -7.8374068257        1.1187691220  CLST          71          1.0000000000
       214        72  TIP3  OH2           0.1857676151        1.9973340942       -1.6164614135  CLST          72          1.0000000000
       215        72  TIP3  H1           -0.2514470862        1.0702812701       -1.7117090497  CLST          72          1.0000000000
       216        72  TIP3  H2            0.9766198725        1.6963506372       -2.1001271806  CLST          72          1.0000000000
       217        73  TIP3  OH2          -9.7049359335       13.1942568261        7.4671262335  CLST          73          1.0000000000
       218        73  TIP3  H1           -9.7676667768       12.4120295083        6.8201384955  CLST          73          1.0000000000
       219        73  TIP3  H2          -10.2774210581       13.7866434230        6.8383004442  CLST          73          1.0000000000
       220        74  TIP3  OH2           6.7085734274       -2.7001291529       -3.6307283772  CLST          74          1.0000000000
       221        74  TIP3  H1            6.6730171300       -3.6018716587       -3.2327964085  CLST          74          1.0000000000
       222        74  TIP3  H2            7.6788852509       -2.4789373009       -3.4110822566  CLST          74          1.0000000000
       223        75  TIP3  OH2           2.9700127519      -13.3207787163       -6.7637436378  CLST          75          1.0000000000
       224        75  TIP3  H1            3.0110707310      -12.5165625888       -6.1495544947  CLST          75          1.0000000000
       225        75  TIP3  H2            2.9269244820      -13.9479240519       -5.9611521653  CLST          75          1.0000000000
       226        76  TIP3  OH2           3.9683908554       -9.8824238593        1.1477515930  CLST          76          1.0000000000
       227        76  TIP3  H1            3.8633089610       -9.0774040691        1.5339611073  CLST          76          1.0000000000
       228        76  TIP3  H2            2.1153767717      -10.1646327758        1.8898497580  CLST          76          1.0000000000
       229        77  TIP3  OH2          10.4223172533       -8.3342093790       -2.6136096249  CLST          77          1.0000000000
       230        77  TIP3  H1            9.8058275648       -9.1223488497       -2.4513383169  CLST          77          1.0000000000
       231        77  TIP3  H2           10.2399742790       -8.2315758277       -3.5867562809  CLST          77          1.0000000000
       232        78  TIP3  OH2          10.4795411685       11.7038794628       -7.7689186156  CLST          78          1.0000000000
       233        78  TIP3  H1           11.0705471673       11.0424771812       -8.2034634099  CLST          78          1.0000000000
       234        78  TIP3  H2           10.8237283118       12.2933317702       -7.1360562409  CLST          78          1.0000000000
       235        79  TIP3  OH2          12.7215672776        0.5669726294        1.2598655276  CLST          79          1.0000000000
       236        79  TIP3  H1           13.4874953676        0.7974553988        1.5621043008  CLST          79          1.0000000000
       237        79  TIP3  H2           12.0425530000        1.2771980196        1.4719743736  CLST          79          1.0000000000
       238        80  TIP3  OH2          -7.5360782280        0.0749160779        6.6931613341  CLST          80          1.0000000000
       239        80  TIP3  H1           -7.5543685178        0.5892670797        5.8560151659  CLST          80          1.0000000000
       240        80  TIP3  H2           -6.6255025207       -0.2964444921        6.7183471618  CLST          80          1.0000000000
       241        81  TIP3  OH2          -7.6404779685      -10.9307670435        2.1755039047  CLST          81          1.0000000000
       242        81  TIP3  H1           -6.7787268023      -10.9277498414        1.6227215690  CLST          81          1.0000000000
       243        81  TIP3  H2           -7.1760900157      -11.0481111783        3.0743655393  CLST          81          1.0000000000
       244        82  TIP3  OH2          -1.5231099937       -9.9504379612       -6.5409505774  CLST          82          1.0000000000
       245        82  TIP3  H1           -2.5411076277       -9.8412660026       -6.4108884704  CLST          82          1.0000000000
       246        82  TIP3  H2           -1.4836616401      -10.8642975278       -6.1465641396  CLST          82          1.0000000000
       247        83  TIP3  OH2          12.2355264054       -8.5522256635        1.4944172384  CLST          83          1.0000000000
       248        83  TIP3  H1           12.6322271904       -8.0930963386        2.2872335076  CLST          83          1.0000000000
       249        83  TIP3  H2           11.2745070967       -8.3223261713        1.5454298850  CLST          83          1.0000000000
       250        84  TIP3  OH2          -3.5709265954       11.1357624150       -2.1020321519  CLST          84          1.0000000000
       251        84  TIP3  H1           -4.3983613975       11.1056893915       -2.6642604858  CLST          84          1.0000000000
       252        84  TIP3  H2           -3.5830167119       11.9356039429       -1.7844319692  CLST          84          1.0000000000
       253        85  TIP3  OH2           5.8777203932       -2.3384708375        0.0788375368  CLST          85          1.0000000000
       254        85  TIP3  H1            5.7782746276       -1.7881261119        0.8679906422  CLST          85          1.0000000000
       255        85  TIP3  H2            6.7461425851       -2.7696769664        0.2486530192  CLST          85          1.0000000000
       256        86  TIP3  OH2           6.7217233829       -8.4385339042        5.8308099758  CLST          86          1.0000000000
       257        86  TIP3  H1            6.1118630386       -8.7620311941        6.5358625516  CLST          86          1.0000000000
       258        86  TIP3  H2            6.3712664398       -7.5402690189        5.6965272808  CLST          86          1.0000000000
       259        87  TIP3  OH2          -1.3483635492       -3.6166956467       10.6959984194  CLST          87          1.0000000000
       260        87  TIP3  H1           -0.6763008638       -4.0657827411       11.4355683768  CLST          87          1.0000000000
       261        87  TIP3  H2           -2.2324468157       -4.0554615820       10.9348853562  CLST          87          1.0000000000
       262        88  TIP3  OH2          -0.7673852447        4.4165521564       -7.9469239593  CLST          88          1.0000000000
       263        88  TIP3  H1           -1.1337057508        3.5133480438       -7.7196292364  CLST          88          1.0000000000
       264        88  TIP3  H2           -1.6291175406        4.8876558381       -8.1399894188  CLST          88          1.0000000000
       265        89  TIP3  OH2           3.5050729191        0.9888627135      -11.7590014369  CLST          89          1.0000000000
       266        89  TIP3  H1            3.4470910387        1.7838801562      -12.2113749505  CLST          89          1.0000000000
       267        89  TIP3  H2            3.5392482273        0.3220144059      -12.3594256757  CLST          89          1.0000000000
       268        90  TIP3  OH2           5.5683693969       11.1818285675       -5.4160666480  CLST          90          1.0000000000
       269        90  TIP3  H1            5.1062283744       11.9013348507       -4.7467155907  CLST          90          1.0000000000
       270        90  TIP3  H2            5.5693539633       11.8280035230       -6.2235812357  CLST          90          1.0000000000
       271        91  TIP3  OH2           5.9673364951       -7.8889846959      -12.3347627751  CLST          91          1.0000000000
       272        91  TIP3  H1            6.2608555374       -8.8187042739      -12.3362985233  CLST          91          1.0000000000
       273        91  TIP3  H2            6.8801133977       -7.4084241443      -12.1161309559  CLST          91          1.0000000000
       274        92  TIP3  OH2           9.7675573400       11.4801071276        2.5049288523  CLST          92          1.0000000000
       275        92  TIP3  H1           10.0359150873       11.8257186095        3.4176229038  CLST          92          1.0000000000
       276        92  TIP3  H2            9.3739821781       12.2776838148        2.1626351051  CLST          92          1.0000000000
       277        93  TIP3  OH2          -8.9871042625        7.2637463388        2.7605437081  CLST          93          1.0000000000
       278        93  TIP3  H1           -8.6378794986        8.1349664254        2.4892085151  CLST          93          1.0000000000
       279        93  TIP3  H2           -8.3240304407        6.9225546704        3.4032859075  CLST          93          1.0000000000
       280        94  TIP3  OH2         -14.1326834146        6.5872876153        6.6109175988  CLST          94          1.0000000000
       281        94  TIP3  H1          -13.5790944398        7.3757068228        6.3780543767  CLST          94          1.0000000000
       282        94  TIP3  H2          -14.3032648561        6.4041919486        5.6127617302  CLST          94          1.0000000000
       283        95  TIP3  OH2           9.7500249658        5.7126038946       -1.8106197315  CLST          95          1.0000000000
       284        95  TIP3  H1            9.7300923966        5.9633344512       -0.8397819988  CLST          95          1.0000000000
       285        95  TIP3  H2           10.5298639675        5.0872360192       -1.7258769631  CLST          95          1.0000000000
       286        96  TIP3  OH2           9.7203769933      -10.9784403588       11.1844346224  CLST          96          1.0000000000
       287        96  TIP3  H1           10.4625680573      -11.2101768238       10.5539057260  CLST          96          1.0000000000
       288        96  TIP3  H2            9.5076710388      -11.8684966422       11.4525030388  CLST          96          1.0000000000
       289        97  TIP3  OH2          -7.6184192082        6.8942977638        8.5075686766  CLST          97          1.0000000000
       290        97  TIP3  H1           -7.3906532866        5.9665565000        8.9297609514  CLST          97          1.0000000000
       291        97  TIP3  H2           -8.5942698629        6.6028849260        8.4128663732  CLST          97          1.0000000000
       292        98  TIP3  OH2           5.9160200967        0.5302483312       -3.3181930053  CLST          98          1.0000000000
       293        98  TIP3  H1            6.5845568249        0.2340702311       -2.6256013871  CLST          98          1.0000000000
       294        98  TIP3  H2            5.1776984351       -0.0413657609       -2.9728732285  CLST          98          1.0000000000
       295        99  TIP3  OH2          -6.9176903620      -11.3269996696        4.7816172215  CLST          99          1.0000000000
       296        99  TIP3  H1           -7.1611433464      -11.0279313733        5.6915779352  CLST          99          1.0000000000
       297        99  TIP3  H2           -6.1662564076      -11.9378282049        4.9653039037  CLST          99          1.0000000000
       298       100  TIP3  OH2           2.3457960716        0.4617575609       -9.1522236825  CLST         100          1.0000000000
       299       100  TIP3  H1            2.8210983831        0.5089654690      -10.0243350126  CLST         100          1.0000000000
       300       100  TIP3  H2            2.2511799410        1.4310190546       -9.0604266400  CLST         100          1.0000000000
       301       101  TIP3  OH2          12.8335070651       -6.9186684748        3.8974771539  CLST         101          1.0000000000
       302       101  TIP3  H1           12.6449982369       -7.4541865933        4.6868747863  CLST         101          1.0000000000
       303       101  TIP3  H2           13.6821788026       -6.6507567856        4.1983261270  CLST         101          1.0000000000
       304       102  TIP3  OH2         -12.0546439251       10.2473974174        1.4390628583  CLST         102          1.0000000000
       305       102  TIP3  H1          -12.8098904032        9.8141542101        1.9840680864  CLST         102          1.0000000000
       306       102  TIP3  H2          -12.4733996343        9.8248425808        0.5543926667  CLST         102          1.0000000000
       307       103  TIP3  OH2          -0.6434726552       -9.5133655937        7.6444303714  CLST         103          1.0000000000
       308       103  TIP3  H1            0.0028545036       -9.6074734546        8.3953456887  CLST         103          1.0000000000
       309       103  TIP3  H2           -1.3200806253      -10.1719823285        7.9803159712  CLST         103          1.0000000000
       310       104  TIP3  OH2          -4.4559967287      -12.1026881798        9.9806698500  CLST         104          1.0000000000
       311       104  TIP3  H1           -5.0314707636      -11.5555711629       10.5797084363  CLST         104          1.0000000000
       312       104  TIP3  H2           -5.0071416117      -12.7934712213        9.6406093249  CLST         104          1.0000000000
       313       105  TIP3  OH2          -5.2554983386       10.5035752833      -11.5177025102  CLST         105          1.0000000000
       314       105  TIP3  H1           -4.8786249632       10.9174613114      -12.3141664287  CLST         105          1.0000000000
       315       105  TIP3  H2           -5.9865130369        9.9376789328      -11.8656442442  CLST         105          1.0000000000
       316       106  TIP3  OH2           7.4478658160       -8.1211951312       -1.4953870591  CLST         106          1.0000000000
       317       106  TIP3  H1            8.2685780575       -7.6715301879       -1.2836784586  CLST         106          1.0000000000
       318       106  TIP3  H2            7.7170645563       -9.0464705073       -1.7255110777  CLST         106          1.0000000000
       319       107  TIP3  OH2          -8.4609803800       -4.7231469904        5.1982181469  CLST         107          1.0000000000
       320       107  TIP3  H1           -8.9326736196       -4.1824448177        4.5280092017  CLST         107          1.0000000000
       321       107  TIP3  H2           -7.5481365292       -4.4606174924        5.0205644405  CLST         107          1.0000000000
       322       108  TIP3  OH2         -10.5801140742        2.0093212994        9.4828275709  CLST         108          1.0000000000
       323       108  TIP3  H1           -9.6364661002        1.8247257042        9.4199419666  CLST         108          1.0000000000
       324       108  TIP3  H2          -10.9119618672        1.1015517950        9.8546573205  CLST         108          1.0000000000
       325       109  TIP3  OH2           2.2841903512        6.8923137771        8.7255200580  CLST         109          1.0000000000
       326       109  TIP3  H1            1.6634398106        6.5063448917        9.3675373172  CLST         109          1.0000000000
       327       109  TIP3  H2            3.0818085415        6.3166381521        8.8341578583  CLST         109          1.0000000000
       328       110  TIP3  OH2           1.5084570768       12.3958480798      -11.1815799598  CLST         110          1.0000000000
       329       110  TIP3  H1            1.9230494755       13.2371133589      -11.1096838401  CLST         110          1.0000000000
       330       110  TIP3  H2            1.0925053576       12.2640343207      -10.2855099192  CLST         110          1.0000000000
       331       111  TIP3  OH2          11.8805371819      -11.7091738580        9.5026575633  CLST         111          1.0000000000
       332       111  TIP3  H1           12.7122463958      -12.1311570056        9.8064296443  CLST         111          1.0000000000
       333       111  TIP3  H2           11.5546701248      -12.5174189111        9.0517628215  CLST         111          1.0000000000
       334       112  TIP3  OH2           6.4798275959       -0.1940201293        1.7815020585  CLST         112          1.0000000000
       335       112  TIP3  H1            7.0944101104        0.5942997226        1.8423134017  CLST         112          1.0000000000
       336       112  TIP3  H2            6.2329724104       -0.2874945823        2.7463706222  CLST         112          1.0000000000
       337       113  TIP3  OH2         -13.0277312375        0.9477569339       -0.0404553324  CLST         113          1.0000000000
       338       113  TIP3  H1          -13.6262000850        0.0917346750       -0.1567451396  CLST         113          1.0000000000
       339       113  TIP3  H2          -12.4724429044        0.7402493042       -0.8119670088  CLST         113          1.0000000000
       340       114  TIP3  OH2         -13.8544173814        3.6477714264       -0.2163904954  CLST         114          1.0000000000
       341       114  TIP3  H1          -13.7796735243        2.6992446850        0.0345306328  CLST         114          1.0000000000
       342       114  TIP3  H2          -13.2684631788        3.5623588115       -1.1047153988  CLST         114          1.0000000000
       343       115  TIP3  OH2          -8.8224302310        0.3063092549      -10.6724002154  CLST         115          1.0000000000
       344       115  TIP3  H1           -7.9494037308        0.3794383676      -11.1211178366  CLST         115          1.0000000000
       345       115  TIP3  H2           -9.0070399538        1.2711986084      -10.7704110842  CLST         115          1.0000000000
       346       116  TIP3  OH2           7.0259711927       -5.8198012648        2.1379368019  CLST         116          1.0000000000
       347       116  TIP3  H1            7.7303181801       -5.9387543737        1.4525139856  CLST         116          1.0000000000
       348       116  TIP3  H2            6.9760101029       -4.8733090279        2.3544983918  CLST         116          1.0000000000
       349       117  TIP3  OH2          -0.7932446345        0.0232665060       12.5226082799  CLST         117          1.0000000000
       350       117  TIP3  H1           -0.4254932204       -0.8924015830       12.5775025175  CLST         117          1.0000000000
       351       117  TIP3  H2           -0.1107890865        0.2582152421       13.1936414581  CLST         117          1.0000000000
       352       118  TIP3  OH2           0.1896637899       -9.6384291602        4.9819902483  CLST         118          1.0000000000
       353       118  TIP3  H1           -0.1013771940       -9.5163399128        5.9216785713  CLST         118          1.0000000000
       354       118  TIP3  H2           -0.1908627135       -8.7900455848        4.5793176492  CLST         118          1.0000000000
       355       119  TIP3  OH2          -9.2297688652      -10.3051776948       -8.7722116551  CLST         119          1.0000000000
       356       119  TIP3  H1           -9.4411504815      -10.7254045620       -9.6611076485  CLST         119          1.0000000000
       357       119  TIP3  H2           -8.7072854619       -9.6010442466       -9.1875629883  CLST         119          1.0000000000
       358       120  TIP3  OH2           9.6797948482       -7.9527971184        1.2937461315  CLST         120          1.0000000000
       359       120  TIP3  H1            8.9148296422       -8.5327506496        1.0619918257  CLST         120          1.0000000000
       360       120  TIP3  H2            9.6504862740       -7.2214856927        0.6209632267  CLST         120          1.0000000000
       361       121  TIP3  OH2          -5.8308544591       -0.3772798418       -8.0929397360  CLST         121          1.0000000000
       362       121  TIP3  H1           -5.6873682851       -0.1897810956       -9.0339614582  CLST         121          1.0000000000
       363       121  TIP3  H2           -4.9397937462       -0.9038603257       -7.9268116860  CLST         121          1.0000000000
       364       122  TIP3  OH2          10.3281601700       12.0816120913        5.1375277075  CLST         122          1.0000000000
       365       122  TIP3  H1            9.4721449497       12.5067845259        5.4413362555  CLST         122          1.0000000000
       366       122  TIP3  H2           10.8339961828       12.2575152099        5.9556620908  CLST         122          1.0000000000
       367       123  TIP3  OH2          -7.3931100679       -5.5945337963      -11.1645002104  CLST         123          1.0000000000
       368       123  TIP3  H1           -7.0368298400       -6.4636832723      -11.1614857585  CLST         123          1.0000000000
       369       123  TIP3  H2           -7.3538235759       -5.3611262717      -10.1919197926  CLST         123          1.0000000000
       370       124  TIP3  OH2          -6.0357453278       -8.6478421430      -10.7501934766  CLST         124          1.0000000000
       371       124  TIP3  H1           -5.2083942690       -8.8595850531      -10.1752965347  CLST         124          1.0000000000
       372       124  TIP3  H2           -6.5904757763       -8.4043178574       -9.9514635528  CLST         124          1.0000000000
       373       125  TIP3  OH2         -13.4028361895        4.2239487719        8.0852058191  CLST         125          1.0000000000
       374       125  TIP3  H1          -13.2855831485        3.4731217930        7.5101523081  CLST         125          1.0000000000
       375       125  TIP3  H2          -13.7246241246        4.9988389485        7.5173561307  CLST         125          1.0000000000
       376       126  TIP3  OH2          -6.9613755733      -10.7918645755      -12.0902539768  CLST         126          1.0000000000
       377       126  TIP3  H1           -6.1152210253      -11.3350730322      -11.7765610474  CLST         126          1.0000000000
       378       126  TIP3  H2           -6.6001367660       -9.9415367654      -11.6079249112  CLST         126          1.0000000000
       379       127  TIP3  OH2          -7.4098944899      -11.6064831039       -6.9702692264  CLST         127          1.0000000000
       380       127  TIP3  H1           -7.9162476637      -12.4340180763       -7.0338471046  CLST         127          1.0000000000
       381       127  TIP3  H2           -7.9368505047      -11.1100111689       -7.6274456947  CLST         127          1.0000000000
       382       128  TIP3  OH2           9.8447180664        0.8299212583       -2.3857328773  CLST         128          1.0000000000
       383       128  TIP3  H1            8.8861105677        0.5836977354       -2.2258913356  CLST         128          1.0000000000
       384       128  TIP3  H2            9.7124905162        1.3165712192       -3.2427062999  CLST         128          1.0000000000
       385       129  TIP3  OH2          -7.6959014544        9.5705765072        0.9835368833  CLST         129          1.0000000000
       386       129  TIP3  H1           -6.8723700747       10.1115071067        1.2036423532  CLST         129          1.0000000000
       387       129  TIP3  H2           -7.1668922038        8.7687411425        0.6634619736  CLST         129          1.0000000000
       388       130  TIP3  OH2          -4.0476437642        3.9729534606        9.9900795962  CLST         130          1.0000000000
       389       130  TIP3  H1           -3.4242278771        4.7036274976        9.9029250935  CLST         130          1.0000000000
       390       130  TIP3  H2           -3.7670109033        3.5189197803       10.8198109136  CLST         130          1.0000000000
       391       131  TIP3  OH2           7.8166587770       -3.6319069409       -9.9470060501  CLST         131          1.0000000000
       392       131  TIP3  H1            7.7214431212       -2.8782838649       -9.2825199980  CLST         131          1.0000000000
       393       131  TIP3  H2            6.8108659106       -3.8228567276       -9.9865623078  CLST         131          1.0000000000
       394       132  TIP3  OH2         -11.5954368798       11.3865592104       12.2086824028  CLST         132          1.0000000000
       395       132  TIP3  H1          -11.3328954883       12.0636728473       11.5596816699  CLST         132          1.0000000000
       396       132  TIP3  H2          -11.8981316974       11.7170086682       12.9386374240  CLST         132          1.0000000000
       397       133  TIP3  OH2          10.4468290973        9.4583449896        8.5621093339  CLST         133          1.0000000000
       398       133  TIP3  H1           10.5788322819        8.9384959632        9.3876248184  CLST         133          1.0000000000
       399       133  TIP3  H2           11.3636265161        9.8791648289        8.5976769609  CLST         133          1.0000000000
       400       134  TIP3  OH2          -7.7381547774        5.8156201554       -6.0474848897  CLST         134          1.0000000000
       401       134  TIP3  H1           -8.4821885258        6.4992645956       -5.8889158959  CLST         134          1.0000000000
       402       134  TIP3  H2           -7.4502200868        5.7642729846       -5.1128421864  CLST         134          1.0000000000
       403       135  TIP3  OH2          10.6865324830      -11.2257113930      -13.2061933469  CLST         135          1.0000000000
       404       135  TIP3  H1           11.0415849458      -10.4114235512      -12.7987534771  CLST         135          1.0000000000
       405       135  TIP3  H2           10.6462428883      -11.0306636153      -14.0952188118  CLST         135          1.0000000000
       406       136  TIP3  OH2          -4.3103267621        1.9585917296       -7.0302624235  CLST         136          1.0000000000
       407       136  TIP3  H1           -4.8503072585        1.1715139413       -7.2923535690  CLST         136          1.0000000000
       408       136  TIP3  H2           -5.0428048867        2.3626406360       -6.4606434614  CLST         136          1.0000000000
       409       137  TIP3  OH2          12.9324071949       10.2212714887        9.1822687755  CLST         137          1.0000000000
       410       137  TIP3  H1           13.0466837898        9.9425066420       10.1252597016  CLST         137          1.0000000000
       411       137  TIP3  H2           13.7884971977        9.8910262212        8.8474655586  CLST         137          1.0000000000
       412       138  TIP3  OH2          -0.7495556057       -9.8738156028        1.6069657731  CLST         138          1.0000000000
       413       138  TIP3  H1           -0.9085117302       -9.5430850960        0.6868504925  CLST         138          1.0000000000
       414       138  TIP3  H2           -0.7735547833       -9.1066260991        2.2277606037  CLST         138          1.0000000000
       415       139  TIP3  OH2          -9.6646839416      -10.6666107088        4.4927588565  CLST         139          1.0000000000
       416       139  TIP3  H1          -10.3923632026      -10.6585828022        3.8409446389  CLST         139          1.0000000000
       417       139  TIP3  H2           -9.0421210025      -11.1925792609        3.9396849023  CLST         139          1.0000000000
       418       140  TIP3  OH2          -6.9599840261        3.5859732395       -0.4249006844  CLST         140          1.0000000000
       419       140  TIP3  H1           -6.1710218005        4.1698391459       -0.2637930131  CLST         140          1.0000000000
       420       140  TIP3  H2           -7.6405573474        4.2372707854       -0.6718094842  CLST         140          1.0000000000
       421       141  TIP3  OH2           2.1109103826       -4.5424343682       -3.6644695364  CLST         141          1.0000000000
       422       141  TIP3  H1            1.6494894231       -3.8250573174       -3.2252546280  CLST         141          1.0000000000
       423       141  TIP3  H2            2.7058542015       -4.0155194935       -4.2522540860  CLST         141          1.0000000000
       424       142  TIP3  OH2         -11.6641094105       -0.0990994206        4.9617888304  CLST         142          1.0000000000
       425       142  TIP3  H1          -11.7764835649        0.6327182042        5.6561624036  CLST         142          1.0000000000
       426       142  TIP3  H2          -11.9715289958        0.4049726461        4.1727612575  CLST         142          1.0000000000
       427       143  TIP3  OH2           9.2987716629       -5.7860853240       -8.2041466667  CLST         143          1.0000000000
       428       143  TIP3  H1            9.6126264241       -5.0549667487       -8.7743407550  CLST         143          1.0000000000
       429       143  TIP3  H2            9.8578398262       -6.5475806033       -8.4598882641  CLST         143          1.0000000000
       430       144  TIP3  OH2           3.3484590441       -2.7683611238        9.1041534792  CLST         144          1.0000000000
       431       144  TIP3  H1            2.4227783836       -2.5655233846        9.5261286005  CLST         144          1.0000000000
       432       144  TIP3  H2            3.2623161650       -2.0372246730        8.4053268704  CLST         144          1.0000000000
       433       145  TIP3  OH2         -10.2293330215       13.3659901732        3.1497049213  CLST         145          1.0000000000
       434       145  TIP3  H1          -10.6412016273       13.3740333587        2.2835785948  CLST         145          1.0000000000
       435       145  TIP3  H2           -9.6763412771       12.5774252188        3.2040507355  CLST         145          1.0000000000
       436       146  TIP3  OH2           9.2293613461        2.7257767215       -4.3738363369  CLST         146          1.0000000000
       437       146  TIP3  H1            8.9253553001        3.6884611685       -4.1786303757  CLST         146          1.0000000000
       438       146  TIP3  H2            8.5514454488        2.6255609359       -5.1159303783  CLST         146          1.0000000000
       439       147  TIP3  OH2         -11.0099246101       -0.3350056497       -4.0950588996  CLST         147          1.0000000000
       440       147  TIP3  H1          -10.1464684195       -0.7083032489       -4.4454622789  CLST         147          1.0000000000
       441       147  TIP3  H2          -11.4355960432       -0.5132854643       -5.0179993396  CLST         147          1.0000000000
       442       148  TIP3  OH2          -7.9396807572        1.2941536676        8.8458785437  CLST         148          1.0000000000
       443       148  TIP3  H1           -7.8374516838        0.9374610644        7.9018824305  CLST         148          1.0000000000
       444       148  TIP3  H2           -6.8952436323        1.3667766270        8.8798703044  CLST         148          1.0000000000
       445       149  TIP3  OH2           8.6443490922       -2.8030986565        0.8935541330  CLST         149          1.0000000000
       446       149  TIP3  H1            9.3023619960       -2.0330281007        0.8784289806  CLST         149          1.0000000000
       447       149  TIP3  H2            8.2196850237       -2.6301391262        1.7302807783  CLST         149          1.0000000000
       448       150  TIP3  OH2          -2.1546924865      -11.3673195229        8.5115984302  CLST         150          1.0000000000
       449       150  TIP3  H1           -3.0349940103      -11.6420469115        8.8648110920  CLST         150          1.0000000000
       450       150  TIP3  H2           -1.5736563251      -11.7848350707        9.2315973012  CLST         150          1.0000000000
       451       151  TIP3  OH2          -9.1391497669       -6.4821240960       -4.9308909841  CLST         151          1.0000000000
       452       151  TIP3  H1           -8.1737778764       -6.5853924520       -4.5296600286  CLST         151          1.0000000000
       453       151  TIP3  H2           -8.9258861139       -7.3170812326       -5.4870856943  CLST         151          1.0000000000
       454       152  TIP3  OH2           3.9268168847       -1.9082500783        5.0372941800  CLST         152          1.0000000000
       455       152  TIP3  H1            4.2385650816       -2.7709889192        5.4070661067  CLST         152          1.0000000000
       456       152  TIP3  H2            3.7086573461       -2.2197920112        4.1437620199  CLST         152          1.0000000000
       457       153  TIP3  OH2          -2.8389594839        4.8549858372      -14.1261149317  CLST         153          1.0000000000
       458       153  TIP3  H1           -2.1432605333        5.3992865643      -13.7246260020  CLST         153          1.0000000000
       459       153  TIP3  H2           -2.9075269434        4.2063412401      -13.4039448613  CLST         153          1.0000000000
       460       154  TIP3  OH2           4.5259882568       -6.9974045100        2.0370310608  CLST         154          1.0000000000
       461       154  TIP3  H1            5.3671645288       -6.4304357025        1.9583515784  CLST         154          1.0000000000
       462       154  TIP3  H2            3.8920327406       -6.4595342466        1.5312012047  CLST         154          1.0000000000
       463       155  TIP3  OH2           9.3697259002       -2.7101973477       10.2889643846  CLST         155          1.0000000000
       464       155  TIP3  H1            8.8079933058       -3.0790526668        9.5910364310  CLST         155          1.0000000000
       465       155  TIP3  H2            9.9381170191       -3.4125387499       10.4395223632  CLST         155          1.0000000000
       466       156  TIP3  OH2          -2.0116367264       11.2805747923       11.6416441694  CLST         156          1.0000000000
       467       156  TIP3  H1           -2.9161789935       11.6650023594       11.7533616517  CLST         156          1.0000000000
       468       156  TIP3  H2           -2.3884184393       10.3828980267       11.6040748804  CLST         156          1.0000000000
       469       157  TIP3  OH2           3.8803026618       -0.8242160401        7.5522419134  CLST         157          1.0000000000
       470       157  TIP3  H1            4.8270710471       -0.9087253155        7.7676446000  CLST         157          1.0000000000
       471       157  TIP3  H2            3.9389527601       -1.0473681658        6.6280988908  CLST         157          1.0000000000
       472       158  TIP3  OH2          10.5881797732        9.0560828353       13.3666081702  CLST         158          1.0000000000
       473       158  TIP3  H1            9.7242057972        8.6267328916       13.1634373639  CLST         158          1.0000000000
       474       158  TIP3  H2           10.1493236100        9.9273970340       13.1536312840  CLST         158          1.0000000000
       475       159  TIP3  OH2           0.4597940732      -12.2678125191        4.3465364741  CLST         159          1.0000000000
       476       159  TIP3  H1           -0.1370779969      -12.5312614326        5.0826623926  CLST         159          1.0000000000
       477       159  TIP3  H2            0.2525031535      -11.3020046682        4.5474762586  CLST         159          1.0000000000
       478       160  TIP3  OH2           7.3666185018       -3.4692511291        8.6379711905  CLST         160          1.0000000000
       479       160  TIP3  H1            6.8632184590       -3.6579060079        7.7926662312  CLST         160          1.0000000000
       480       160  TIP3  H2            6.9887737578       -2.5581934838        8.7615125053  CLST         160          1.0000000000
       481       161  TIP3  OH2          -2.4152080594       -2.3692952641        7.9091153131  CLST         161          1.0000000000
       482       161  TIP3  H1           -1.8791647592       -1.8725013690        8.6133274453  CLST         161          1.0000000000
       483       161  TIP3  H2           -3.2719678684       -2.2971037410        8.4296577926  CLST         161          1.0000000000
       484       162  TIP3  OH2          -0.6924445606        3.6475208408      -10.6307337292  CLST         162          1.0000000000
       485       162  TIP3  H1           -0.4195191325        4.3799707674      -11.1644873080  CLST         162          1.0000000000
       486       162  TIP3  H2           -0.7058064400        3.9108993023       -9.7186078814  CLST         162          1.0000000000
       487       163  TIP3  OH2         -10.0745397189        9.2272285956       11.2403230706  CLST         163          1.0000000000
       488       163  TIP3  H1          -10.8153437736        8.5232106046       11.3663441949  CLST         163          1.0000000000
       489       163  TIP3  H2          -10.3868695124        9.9058521301       11.9036217667  CLST         163          1.0000000000
       490       164  TIP3  OH2           4.0250872827      -10.3463396572       13.1357665357  CLST         164          1.0000000000
       491       164  TIP3  H1            4.5633338056       -9.5624923403       13.0675577643  CLST         164          1.0000000000
       492       164  TIP3  H2            4.7724800353      -10.8964177622       12.7481520606  CLST         164          1.0000000000
       493       165  TIP3  OH2         -12.1209375024       -5.5081570520        3.4878298707  CLST         165          1.0000000000
       494       165  TIP3  H1          -11.9652336161       -5.5599271460        4.5048416821  CLST         165          1.0000000000
       495       165  TIP3  H2          -13.0006463525       -5.6932782242        3.4301168899  CLST         165          1.0000000000
       496       166  TIP3  OH2          -1.5374450614       -6.3445353443      -10.2879692911  CLST         166          1.0000000000
       497       166  TIP3  H1           -0.5457596705       -6.4212189635      -10.2817946981  CLST         166          1.0000000000
       498       166  TIP3  H2           -1.7675267834       -7.2635277681      -10.1080301054  CLST         166          1.0000000000
       499       167  TIP3  OH2           8.0126226669       10.5350534423       -0.9291962866  CLST         167          1.0000000000
       500       167  TIP3  H1            8.5581964930       10.0634864755       -0.2127070049  CLST         167          1.0000000000
       501       167  TIP3  H2            8.5857923801       10.3712198016       -1.7027256536  CLST         167          1.0000000000
       502       168  TIP3  OH2          -0.7171120784      -13.3568154267        2.0958826490  CLST         168          1.0000000000
       503       168  TIP3  H1           -0.3628727498      -13.0209941227        2.9846102449  CLST         168          1.0000000000
       504       168  TIP3  H2            0.1518472403      -13.7140109324        1.7954362058  CLST         168          1.0000000000
       505       169  TIP3  OH2           5.1401897470        4.0440066898        3.3236780073  CLST         169          1.0000000000
       506       169  TIP3  H1            4.1759369468        3.8563389069        3.1484212200  CLST         169          1.0000000000
       507       169  TIP3  H2            5.1800137880        4.6299388172        2.5107044355  CLST         169          1.0000000000
       508       170  TIP3  OH2          -1.1091821095        4.2940497137        1.4507671553  CLST         170          1.0000000000
       509       170  TIP3  H1           -1.7676571109        4.9765974810        1.1908051654  CLST         170          1.0000000000
       510       170  TIP3  H2           -1.4650346078        3.3952936710        1.3875429967  CLST         170          1.0000000000
       511       171  TIP3  OH2          -3.0097278083        1.3670910258        7.4381381988  CLST         171          1.0000000000
       512       171  TIP3  H1           -2.6717587831        0.7875900482        6.6626907534  CLST         171          1.0000000000
       513       171  TIP3  H2           -2.0340636048        1.6527779269        7.6393149954  CLST         171          1.0000000000
       514       172  TIP3  OH2          -6.4440667409      -13.1671672443        8.1090651203  CLST         172          1.0000000000
       515       172  TIP3  H1           -6.9064420171      -13.7231970209        7.6099416924  CLST         172          1.0000000000
       516       172  TIP3  H2           -5.7842465556      -12.8166505186        7.4211051475  CLST         172          1.0000000000
       517       173  TIP3  OH2          10.2097426816      -12.5293759085        1.9275166353  CLST         173          1.0000000000
       518       173  TIP3  H1           10.3653156663      -12.4405883638        0.9302996990  CLST         173          1.0000000000
       519       173  TIP3  H2            9.2510522597      -12.5714270605        1.8756449088  CLST         173          1.0000000000
       520       174  TIP3  OH2          -0.0362479253        5.4984378759        9.7391729149  CLST         174          1.0000000000
       521       174  TIP3  H1           -0.1223053283        4.5761799183       10.1458421212  CLST         174          1.0000000000
       522       174  TIP3  H2           -0.9350739669        5.8519302727        9.8508365931  CLST         174          1.0000000000
       523       175  TIP3  OH2          -5.6803758147       10.4926069295       -3.5634394637  CLST         175          1.0000000000
       524       175  TIP3  H1           -5.3094641165       10.3408934749       -4.4550513619  CLST         175          1.0000000000
       525       175  TIP3  H2           -6.5735088510       10.2340226008       -3.8517425165  CLST         175          1.0000000000
       526       176  TIP3  OH2           6.8329840507        9.2365468708       -7.7626128728  CLST         176          1.0000000000
       527       176  TIP3  H1            7.1692946193       10.0660189739       -8.1914192477  CLST         176          1.0000000000
       528       176  TIP3  H2            6.2773009518        9.6688271448       -7.0833361397  CLST         176          1.0000000000
       529       177  TIP3  OH2          -3.7677439780      -11.4786747431       -1.4455303444  CLST         177          1.0000000000
       530       177  TIP3  H1           -3.2509761824      -12.1015026903       -0.9082685692  CLST         177          1.0000000000
       531       177  TIP3  H2           -4.4833350513      -11.3069645990       -0.7554703793  CLST         177          1.0000000000
       532       178  TIP3  OH2          10.9822609411       -8.9632337643      -11.4010686719  CLST         178          1.0000000000
       533       178  TIP3  H1           11.1513113110       -8.8356682916      -10.4674588875  CLST         178          1.0000000000
       534       178  TIP3  H2           10.9495565158       -8.0062795234      -11.6667433107  CLST         178          1.0000000000
       535       179  TIP3  OH2           6.5458629405       -0.9539682797        8.5376327727  CLST         179          1.0000000000
       536       179  TIP3  H1            6.2011638906       -0.3165863258        9.1980743002  CLST         179          1.0000000000
       537       179  TIP3  H2            7.3057129281       -0.3314859527        8.2849981091  CLST         179          1.0000000000
       538       180  TIP3  OH2          -7.5687299112        8.0967046063        5.9565770892  CLST         180          1.0000000000
       539       180  TIP3  H1           -7.5312817867        7.6935516771        6.9066044009  CLST         180          1.0000000000
       540       180  TIP3  H2           -8.5855750439        8.0810094387        5.9107044016  CLST         180          1.0000000000
       541       181  TIP3  OH2           5.9147421029      -12.8178140597       -0.4759534953  CLST         181          1.0000000000
       542       181  TIP3  H1            6.6248844755      -13.0221053459       -1.1675166686  CLST         181          1.0000000000
       543       181  TIP3  H2            6.7528027826      -13.2349441722        1.4525499531  CLST         181          1.0000000000
       544       182  TIP3  OH2          -1.7968855241       10.4243599178      -10.3055951329  CLST         182          1.0000000000
       545       182  TIP3  H1           -1.0705600348       10.8352570030       -9.8371250505  CLST         182          1.0000000000
       546       182  TIP3  H2           -2.5069687650       10.4225970776       -9.6388524210  CLST         182          1.0000000000
       547       183  TIP3  OH2          -5.3310532084        3.6570623782      -12.2891063750  CLST         183          1.0000000000
       548       183  TIP3  H1           -5.1528782411        3.5250203745      -11.3318099399  CLST         183          1.0000000000
       549       183  TIP3  H2           -6.2957535757        3.3027913366      -12.3350231708  CLST         183          1.0000000000
       550       184  TIP3  OH2           3.0844563803        8.1970591077       -2.3138121878  CLST         184          1.0000000000
       551       184  TIP3  H1            3.0855458560        7.4250885834       -1.7079777730  CLST         184          1.0000000000
       552       184  TIP3  H2            2.1337610525        7.9964462960       -2.5989356099  CLST         184          1.0000000000
       553       185  TIP3  OH2           7.5187980308        4.7761742523       12.1274164672  CLST         185          1.0000000000
       554       185  TIP3  H1            7.6640762695        3.7878136518       12.1502234646  CLST         185          1.0000000000
       555       185  TIP3  H2            7.0125046023        4.9171375198       12.9635227850  CLST         185          1.0000000000
       556       186  TIP3  OH2           3.9114987021        5.9860418394       -5.2308971190  CLST         186          1.0000000000
       557       186  TIP3  H1            4.1816280689        6.9894546643       -5.2941352783  CLST         186          1.0000000000
       558       186  TIP3  H2            3.8558873829        5.7341201964       -6.1735062975  CLST         186          1.0000000000
       559       187  TIP3  OH2           3.9931200481        1.5511458545       -5.5524563837  CLST         187          1.0000000000
       560       187  TIP3  H1            4.4321407776        1.4392661979       -4.6618834754  CLST         187          1.0000000000
       561       187  TIP3  H2            3.6180445764        0.6205409567       -5.6911315976  CLST         187          1.0000000000
       562       188  TIP3  OH2          -4.4553590778       -1.5104782176        4.8491952469  CLST         188          1.0000000000
       563       188  TIP3  H1           -4.6037714860       -0.7181934681        4.3552038973  CLST         188          1.0000000000
       564       188  TIP3  H2           -4.8302405866       -1.2272759510        5.7446903178  CLST         188          1.0000000000
       565       189  TIP3  OH2          -5.0410801602        3.5350885073      -15.1289768710  CLST         189          1.0000000000
       566       189  TIP3  H1           -5.0455615448        3.7118803149      -14.1644348058  CLST         189          1.0000000000
       567       189  TIP3  H2           -4.2013593032        4.0076518181      -15.2659660151  CLST         189          1.0000000000
       568       190  TIP3  OH2           7.2174547873       -5.8277049840        5.2690948037  CLST         190          1.0000000000
       569       190  TIP3  H1            7.0860759642       -6.0652646610        4.2923598579  CLST         190          1.0000000000
       570       190  TIP3  H2            8.2023932449       -5.8488110975        5.2339316021  CLST         190          1.0000000000
       571       191  TIP3  OH2         -10.9050062526       -4.8283589766       -6.4637294998  CLST         191          1.0000000000
       572       191  TIP3  H1          -10.0926289600       -4.6819073828       -6.9654165417  CLST         191          1.0000000000
       573       191  TIP3  H2          -10.6124570822       -5.6655053646       -6.0418341862  CLST         191          1.0000000000
       574       192  TIP3  OH2           8.7651398699       14.4942812827        1.8883937883  CLST         192          1.0000000000
       575       192  TIP3  H1            8.2015417821       14.8063705910        2.5820865300  CLST         192          1.0000000000
       576       192  TIP3  H2            9.0608776514       15.3417420659        1.5750301004  CLST         192          1.0000000000
       577       193  TIP3  OH2           6.0973236430      -12.2500115938       11.8873146269  CLST         193          1.0000000000
       578       193  TIP3  H1            6.7267543463      -13.0238650628       11.7659408848  CLST         193          1.0000000000
       579       193  TIP3  H2            6.3580889508      -11.7343808936       11.1124107426  CLST         193          1.0000000000
       580       194  TIP3  OH2          -6.2416157060       -4.4202283753       11.2119610979  CLST         194          1.0000000000
       581       194  TIP3  H1           -6.6798099940       -4.2886945728       12.0526083880  CLST         194          1.0000000000
       582       194  TIP3  H2           -6.9180539999       -4.1962234823       10.5667844476  CLST         194          1.0000000000
       583       195  TIP3  OH2          -7.4684482812        9.0937319188       10.3470942273  CLST         195          1.0000000000
       584       195  TIP3  H1           -8.3922486815        9.0268912993       10.7595604875  CLST         195          1.0000000000
       585       195  TIP3  H2           -7.6682601248        8.5572974093        9.5508558469  CLST         195          1.0000000000
       586       196  TIP3  OH2           5.8978417858      -12.2261036257       -6.1395494444  CLST         196          1.0000000000
       587       196  TIP3  H1            6.0212160394      -11.4324658643       -6.7159700119  CLST         196          1.0000000000
       588       196  TIP3  H2            5.0031854618      -11.8900943482       -5.7993172910  CLST         196          1.0000000000
       589       197  TIP3  OH2           2.2093209511       -9.1949305753       -2.8578084024  CLST         197          1.0000000000
       590       197  TIP3  H1            1.9400041148       -8.2721770281       -2.5211568487  CLST         197          1.0000000000
       591       197  TIP3  H2            3.1482869290       -9.0053943623       -2.8114839941  CLST         197          1.0000000000
       592       198  TIP3  OH2          10.6883034391        1.9600873990        4.7094894972  CLST         198          1.0000000000
       593       198  TIP3  H1            9.8533607742        1.7719432386        4.3021274885  CLST         198          1.0000000000
       594       198  TIP3  H2           10.7296466492        2.8773851928        4.4037365012  CLST         198          1.0000000000
       595       199  TIP3  OH2          -0.1631885045        8.3946616645       -5.7495043509  CLST         199          1.0000000000
       596       199  TIP3  H1           -0.7702908297        8.8983585695       -5.1517777369  CLST         199          1.0000000000
       597       199  TIP3  H2           -0.4866385142        7.4747421318       -5.6944764377  CLST         199          1.0000000000
       598       200  TIP3  OH2          -7.6441127729       11.8515926017       10.9715931528  CLST         200          1.0000000000
       599       200  TIP3  H1           -7.6012404410       10.8631633142       10.9496553720  CLST         200          1.0000000000
       600       200  TIP3  H2           -7.4883471329       12.0412518978       10.0015029574  CLST         200          1.0000000000
       601       201  TIP3  OH2           4.4463521084        1.0021539104       -0.0698163382  CLST         201          1.0000000000
       602       201  TIP3  H1            4.1922970723        1.7247689814        0.5273736058  CLST         201          1.0000000000
       603       201  TIP3  H2            5.1973195179        0.6545644303        0.4574293538  CLST         201          1.0000000000
       604       202  TIP3  OH2          -2.1289042983       -4.3306354364      -12.4329048059  CLST         202          1.0000000000
       605       202  TIP3  H1           -1.7573919665       -4.9550000382      -11.7595247520  CLST         202          1.0000000000
       606       202  TIP3  H2           -2.5674656878       -3.7030315168      -11.8105902596  CLST         202          1.0000000000
       607       203  TIP3  OH2          -0.7959296648       11.4201295120        7.4881028592  CLST         203          1.0000000000
       608       203  TIP3  H1            0.0160374555       10.9811505796        7.8423768390  CLST         203          1.0000000000
       609       203  TIP3  H2           -1.4768638883       11.0044938906        8.0758578723  CLST         203          1.0000000000
       610       204  TIP3  OH2          -5.4095138040        6.4160322209      -13.2515532431  CLST         204          1.0000000000
       611       204  TIP3  H1           -4.6731906333        6.1824958251      -13.8675162873  CLST         204          1.0000000000
       612       204  TIP3  H2           -5.6684519346        5.4638834747      -13.0885954240  CLST         204          1.0000000000
       613       205  TIP3  OH2          -2.3423798491        7.2347432698       -2.6676680243  CLST         205          1.0000000000
       614       205  TIP3  H1           -2.3834359553        7.8989723487       -3.4308309690  CLST         205          1.0000000000
       615       205  TIP3  H2           -1.3435513736        7.1942091932       -2.6234753400  CLST         205          1.0000000000
       616       206  TIP3  OH2           4.8789801039      -11.1623368444       -9.7588500644  CLST         206          1.0000000000
       617       206  TIP3  H1            4.9184578922      -12.1034077245       -9.2885757352  CLST         206          1.0000000000
       618       206  TIP3  H2            5.4584378622      -10.6944721504       -9.0427216724  CLST         206          1.0000000000
       619       207  TIP3  OH2          12.9574055947       10.0558948608       12.2812053119  CLST         207          1.0000000000
       620       207  TIP3  H1           12.0890029746       10.0264368652       12.7240288278  CLST         207          1.0000000000
       621       207  TIP3  H2           13.3915080531        9.4838191736       12.8883902633  CLST         207          1.0000000000
       622       208  TIP3  OH2         -11.7152536536        2.2559995293        6.9792732823  CLST         208          1.0000000000
       623       208  TIP3  H1          -11.2989705367        2.1893054233        7.9095781436  CLST         208          1.0000000000
       624       208  TIP3  H2          -11.3791096668        3.1400586123        6.7081733589  CLST         208          1.0000000000
       625       209  TIP3  OH2           4.5184720770       -9.3669750118        7.2452856491  CLST         209          1.0000000000
       626       209  TIP3  H1            4.0158869145       -9.7400516646        6.4621813927  CLST         209          1.0000000000
       627       209  TIP3  H2            3.7302356206       -8.6974942564        7.3550250756  CLST         209          1.0000000000
       628       210  TIP3  OH2          12.2623248435      -11.1711736156        5.4124573128  CLST         210          1.0000000000
       629       210  TIP3  H1           12.5916943234      -11.0916875780        4.4973949318  CLST         210          1.0000000000
       630       210  TIP3  H2           12.3250244713      -10.2479795532        5.7858438534  CLST         210          1.0000000000
       631       211  TIP3  OH2          -0.1999238111       -9.1574386525       11.9940489171  CLST         211          1.0000000000
       632       211  TIP3  H1            0.3226437416       -9.5656859149       12.7357757872  CLST         211          1.0000000000
       633       211  TIP3  H2           -0.8617982103       -9.8813316967       11.8395025807  CLST         211          1.0000000000
       634       212  TIP3  OH2         -12.3417908826        3.5286483700       -2.4156670379  CLST         212          1.0000000000
       635       212  TIP3  H1          -11.8328468431        4.2135672529       -2.9323582934  CLST         212          1.0000000000
       636       212  TIP3  H2          -11.8590865481        2.6808251520       -2.5422604000  CLST         212          1.0000000000
       637       213  TIP3  OH2          -9.4328064507      -11.4126645442      -11.5571761284  CLST         213          1.0000000000
       638       213  TIP3  H1           -9.6586883004      -11.5784034676      -12.4007133086  CLST         213          1.0000000000
       639       213  TIP3  H2           -8.2288334352      -11.1744459239      -12.6103738306  CLST         213          1.0000000000
       640       214  TIP3  OH2          -6.4671159421        2.2626992606       -5.4748286305  CLST         214          1.0000000000
       641       214  TIP3  H1           -6.4125063348        1.3839315251       -4.9776015898  CLST         214          1.0000000000
       642       214  TIP3  H2           -7.0005587178        2.7375171838       -4.7881006453  CLST         214          1.0000000000
       643       215  TIP3  OH2         -11.8228819296      -12.7733213665        5.6918671944  CLST         215          1.0000000000
       644       215  TIP3  H1          -10.9011366477      -12.5232279207        5.4721863050  CLST         215          1.0000000000
       645       215  TIP3  H2          -12.0104644302      -12.8023447750        4.7287833844  CLST         215          1.0000000000
       646       216  TIP3  OH2         -11.9394092299       -2.2772503888        8.0094224934  CLST         216          1.0000000000
       647       216  TIP3  H1          -10.9627334844       -2.0849718325        8.1205641890  CLST         216          1.0000000000
       648       216  TIP3  H2          -12.0344053123       -3.0590191427        8.5305641899  CLST         216          1.0000000000
       649       217  TIP3  OH2           7.5867755707       -0.2693276972       -1.4133517237  CLST         217          1.0000000000
       650       217  TIP3  H1            7.9380212480       -1.1818412864       -1.6572504096  CLST         217          1.0000000000
       651       217  TIP3  H2            7.0404034791       -0.6239028623       -0.6622331760  CLST         217          1.0000000000
       652       218  TIP3  OH2          -8.2282022820       -3.9856273848        9.1294230030  CLST         218          1.0000000000
       653       218  TIP3  H1           -8.4425389034       -3.1307475058        8.6601665826  CLST         218          1.0000000000
       654       218  TIP3  H2           -7.6228271040       -4.3800420857        8.4581378687  CLST         218          1.0000000000
       655       219  TIP3  OH2         -12.5834778263       -4.5731520382       -2.7377029582  CLST         219          1.0000000000
       656       219  TIP3  H1          -12.7428134945       -3.6356930802       -2.5124715276  CLST         219          1.0000000000
       657       219  TIP3  H2          -12.9513259330       -4.5675097413       -3.6521712339  CLST         219          1.0000000000
       658       220  TIP3  OH2           6.3508468412        6.8105548246        7.8146834539  CLST         220          1.0000000000
       659       220  TIP3  H1            6.0039546036        6.3969198426        6.9647540898  CLST         220          1.0000000000
       660       220  TIP3  H2            5.4903709934        6.6505586901        8.2779943805  CLST         220          1.0000000000
       661       221  TIP3  OH2         -10.4654023860       -7.1123733430       10.2513388448  CLST         221          1.0000000000
       662       221  TIP3  H1           -9.5228800424       -7.1341499815       10.2678885257  CLST         221          1.0000000000
       663       221  TIP3  H2          -10.6630246661       -8.0653022063       10.0513653437  CLST         221          1.0000000000
       664       222  TIP3  OH2          -6.7640051664       -0.8774119376      -13.6334421074  CLST         222          1.0000000000
       665       222  TIP3  H1           -6.2915638190       -1.7585843902      -13.4539402079  CLST         222          1.0000000000
       666       222  TIP3  H2           -7.5447917374       -1.0788702909      -13.0331207790  CLST         222          1.0000000000
       667       223  TIP3  OH2           2.7272178822      -10.8165560261      -11.6869908119  CLST         223          1.0000000000
       668       223  TIP3  H1            2.2205554165      -11.6819001654      -11.5206167610  CLST         223          1.0000000000
       669       223  TIP3  H2            3.5303987630      -10.9871724460      -11.1707813786  CLST         223          1.0000000000
       670       224  TIP3  OH2           7.5376468030        4.7221115590        0.5884500607  CLST         224          1.0000000000
       671       224  TIP3  H1            8.4892584106        4.9390096356        0.6576441409  CLST         224          1.0000000000
       672       224  TIP3  H2            7.4620645278        4.4832904287       -0.3979310116  CLST         224          1.0000000000
       673       225  TIP3  OH2          -0.3573117751        4.5688931182       -1.3868242888  CLST         225          1.0000000000
       674       225  TIP3  H1           -0.9054913978        4.5476472535       -0.6095985651  CLST         225          1.0000000000
       675       225  TIP3  H2           -0.1143761699        3.5502458951       -1.4390548479  CLST         225          1.0000000000
       676       226  TIP3  OH2          -5.7068918265       -4.4831227053        7.6868020163  CLST         226          1.0000000000
       677       226  TIP3  H1           -5.5581269110       -5.4639747269        7.8632434373  CLST         226          1.0000000000
       678       226  TIP3  H2           -5.8319474201       -4.4548254844        6.7224971326  CLST         226          1.0000000000
       679       227  TIP3  OH2          11.6914508027       -4.1025700690       -9.9211529160  CLST         227          1.0000000000
       680       227  TIP3  H1           11.8589458706       -3.7767496470       -9.0078909326  CLST         227          1.0000000000
       681       227  TIP3  H2           11.3490860488       -3.2863247757      -10.3048813799  CLST         227          1.0000000000
       682       228  TIP3  OH2           3.4424991670       12.3071971456        3.2998661762  CLST         228          1.0000000000
       683       228  TIP3  H1            2.6733195571       11.8217093787        3.7836053763  CLST         228          1.0000000000
       684       228  TIP3  H2            3.1113356350       12.0679154781        2.4840418574  CLST         228          1.0000000000
       685       229  TIP3  OH2         -11.4510349088      -12.8664987092        2.8444439482  CLST         229          1.0000000000
       686       229  TIP3  H1          -11.9658221845      -13.4538466039        2.5306608081  CLST         229          1.0000000000
       687       229  TIP3  H2          -11.0125041043      -12.2225235489        2.1837231356  CLST         229          1.0000000000
       688       230  TIP3  OH2          12.3466153710        6.2139513365       -3.4212537865  CLST         230          1.0000000000
       689       230  TIP3  H1           13.3108552404        6.0481792808       -3.3154256217  CLST         230          1.0000000000
       690       230  TIP3  H2           12.1383263020        5.2645116469       -3.5052078367  CLST         230          1.0000000000
       691       231  TIP3  OH2           7.2400453023        3.4191487891        4.8237400143  CLST         231          1.0000000000
       692       231  TIP3  H1            7.3594051515        4.3780943262        4.8777775154  CLST         231          1.0000000000
       693       231  TIP3  H2            6.3713776362        3.4153195134        4.3737746708  CLST         231          1.0000000000
       694       232  TIP3  OH2         -10.3393455428        8.8604831205        7.3773616546  CLST         232          1.0000000000
       695       232  TIP3  H1          -10.7459446883        9.4474346259        8.0622155110  CLST         232          1.0000000000
       696       232  TIP3  H2          -10.3208721274        7.9600129574        7.8240162942  CLST         232          1.0000000000
       697       233  TIP3  OH2           3.6212875979       -5.3039360040        8.0914191119  CLST         233          1.0000000000
       698       233  TIP3  H1            4.3905774595       -5.6659937438        8.6769760390  CLST         233          1.0000000000
       699       233  TIP3  H2            3.3699420062       -4.5103151946        8.6757695564  CLST         233          1.0000000000
       700       234  TIP3  OH2          -3.7158664533        8.4532701487       -0.5156846509  CLST         234          1.0000000000
       701       234  TIP3  H1           -3.4298289412        7.9956909192       -1.3824741379  CLST         234          1.0000000000
       702       234  TIP3  H2           -3.7443681134        9.3693465788       -0.8908090192  CLST         234          1.0000000000
       703       235  TIP3  OH2          -1.7888909189       -4.0607270885       -9.0330388148  CLST         235          1.0000000000
       704       235  TIP3  H1           -1.8468174300       -4.9625626931       -9.4571356784  CLST         235          1.0000000000
       705       235  TIP3  H2           -0.8170589293       -3.8318395247       -9.0906070135  CLST         235          1.0000000000
       706       236  TIP3  OH2          -0.2040135547      -13.4890984224       -3.0263604387  CLST         236          1.0000000000
       707       236  TIP3  H1            0.4268037126      -12.6565663361       -2.9315026856  CLST         236          1.0000000000
       708       236  TIP3  H2           -0.6325372212      -13.3006278538       -2.1728950362  CLST         236          1.0000000000
       709       237  TIP3  OH2          -3.6634689960       -5.0754164863       10.9198779125  CLST         237          1.0000000000
       710       237  TIP3  H1           -4.6597688205       -5.0193613573       10.9418839918  CLST         237          1.0000000000
       711       237  TIP3  H2           -3.5792330160       -5.9458418013       10.5104447067  CLST         237          1.0000000000
       712       238  TIP3  OH2           0.6298179048        4.6115261902        7.2005630808  CLST         238          1.0000000000
       713       238  TIP3  H1            0.0735901808        5.2120907441        6.7041851062  CLST         238          1.0000000000
       714       238  TIP3  H2            0.5056678938        4.9836667634        8.1322713863  CLST         238          1.0000000000
       715       239  TIP3  OH2         -14.0733924858        5.9054842832        3.5426295140  CLST         239          1.0000000000
       716       239  TIP3  H1          -13.9705161446        6.5655063131        2.8581493707  CLST         239          1.0000000000
       717       239  TIP3  H2          -13.3927098229        5.2700648473        3.3010134961  CLST         239          1.0000000000
       718       240  TIP3  OH2         -14.0494164058        9.0644522497       -0.2904384642  CLST         240          1.0000000000
       719       240  TIP3  H1          -15.4350123293        8.7116414036        0.5759305625  CLST         240          1.0000000000
       720       240  TIP3  H2          -14.2057712770        7.5754946534        0.2260638973  CLST         240          1.0000000000
       721       241  TIP3  OH2          -7.7033594813       -7.8117972020       -8.6324010031  CLST         241          1.0000000000
       722       241  TIP3  H1           -7.9828161826       -8.1234461061       -7.7381446422  CLST         241          1.0000000000
       723       241  TIP3  H2           -7.4076378772       -6.9070811369       -8.3938798085  CLST         241          1.0000000000
       724       242  TIP3  OH2           6.0330156102       -5.8520189719        9.7591797791  CLST         242          1.0000000000
       725       242  TIP3  H1            6.6530638668       -5.1319709414        9.4765492261  CLST         242          1.0000000000
       726       242  TIP3  H2            6.7205716398       -6.5702048837        9.5929378694  CLST         242          1.0000000000
       727       243  TIP3  OH2          -6.5763338470       -7.1086899527       -4.2961012661  CLST         243          1.0000000000
       728       243  TIP3  H1           -6.2878532388       -7.9975647790       -4.6130443707  CLST         243          1.0000000000
       729       243  TIP3  H2           -6.5549260442       -7.3912332579       -3.3477898808  CLST         243          1.0000000000
       730       244  TIP3  OH2           4.8566290466        5.6805748445        5.4357724936  CLST         244          1.0000000000
       731       244  TIP3  H1            5.1005282588        5.0813828980        4.6850295789  CLST         244          1.0000000000
       732       244  TIP3  H2            3.9918082093        5.2204860881        5.6175982496  CLST         244          1.0000000000
       733       245  TIP3  OH2          -7.1083610872        3.6264863892       -7.7347167655  CLST         245          1.0000000000
       734       245  TIP3  H1           -7.0195906950        3.1276833329       -6.9032568146  CLST         245          1.0000000000
       735       245  TIP3  H2           -7.3709731321        4.4878634880       -7.3403142273  CLST         245          1.0000000000
       736       246  TIP3  OH2           2.1530058542       -6.6339839627       -1.9560038565  CLST         246          1.0000000000
       737       246  TIP3  H1            2.2110287775       -5.9420999472       -2.6646768151  CLST         246          1.0000000000
       738       246  TIP3  H2            3.0962295483       -6.7234016442       -1.7624582638  CLST         246          1.0000000000
       739       247  TIP3  OH2           5.9590442235        7.9470281353        0.5184695496  CLST         247          1.0000000000
       740       247  TIP3  H1            6.1943066857        7.6500206852       -0.4014940171  CLST         247          1.0000000000
       741       247  TIP3  H2            5.7764438146        8.9016683539        0.3708077514  CLST         247          1.0000000000
       742       248  TIP3  OH2          -2.4640843895        8.3675858772      -11.8975019063  CLST         248          1.0000000000
       743       248  TIP3  H1           -2.1260389823        8.5616048351      -12.7776438973  CLST         248          1.0000000000
       744       248  TIP3  H2           -2.1826873743        9.1820584619      -11.4177412958  CLST         248          1.0000000000
       745       249  TIP3  OH2           8.8416303113        4.8031197199       -7.7980326009  CLST         249          1.0000000000
       746       249  TIP3  H1            8.7340723172        5.6668732085       -7.3731477705  CLST         249          1.0000000000
       747       249  TIP3  H2            8.4491332576        4.1177692366       -7.2310812292  CLST         249          1.0000000000
       748       250  TIP3  OH2          -7.6755578614        9.7127969603       -5.3492069006  CLST         250          1.0000000000
       749       250  TIP3  H1           -7.9242726295        8.9046363604       -5.8154853826  CLST         250          1.0000000000
       750       250  TIP3  H2           -7.9085532508       10.4385101268       -5.9583519284  CLST         250          1.0000000000
       751       251  TIP3  OH2          -3.6549776365       12.3460979928        3.1229782355  CLST         251          1.0000000000
       752       251  TIP3  H1           -3.3719499649       13.0541742270        2.6506199498  CLST         251          1.0000000000
       753       251  TIP3  H2           -2.9522106195       12.2377428849        3.8414661962  CLST         251          1.0000000000
       754       252  TIP3  OH2           5.7608897346        5.3596721207       14.5175695655  CLST         252          1.0000000000
       755       252  TIP3  H1            5.4191957692        6.2600901759       14.3782808926  CLST         252          1.0000000000
       756       252  TIP3  H2            5.8984590132        5.4054324959       15.4598360958  CLST         252          1.0000000000
       757       253  TIP3  OH2           6.0883802756       13.9734658595        3.2310895108  CLST         253          1.0000000000
       758       253  TIP3  H1            5.1618636175       14.0730523221        3.4759054468  CLST         253          1.0000000000
       759       253  TIP3  H2            5.9487354738       13.4575308232        2.4248816076  CLST         253          1.0000000000
       760       254  TIP3  OH2          -4.1865860005        7.9465027808        3.0808587507  CLST         254          1.0000000000
       761       254  TIP3  H1           -4.5607347325        8.8395453669        2.8703904708  CLST         254          1.0000000000
       762       254  TIP3  H2           -5.0540750270        7.4533192838        3.0292285756  CLST         254          1.0000000000
       763       255  TIP3  OH2          -7.0122244886       10.4705465166        4.2793386741  CLST         255          1.0000000000
       764       255  TIP3  H1           -7.9721923294       10.6149000910        4.2252149961  CLST         255          1.0000000000
       765       255  TIP3  H2           -7.0011867106        9.7177727994        4.9460897606  CLST         255          1.0000000000
       766       256  TIP3  OH2          11.5883458960        3.7827305071       -1.3776647837  CLST         256          1.0000000000
       767       256  TIP3  H1           12.0066885009        3.0356757307       -1.8886491512  CLST         256          1.0000000000
       768       256  TIP3  H2           11.2475810393        3.2040291028       -0.6320843358  CLST         256          1.0000000000
       769       257  TIP3  OH2          -8.5835595492       -1.1772827699       -4.9500200495  CLST         257          1.0000000000
       770       257  TIP3  H1           -7.7189793394       -0.8414965745       -4.5720770138  CLST         257          1.0000000000
       771       257  TIP3  H2           -8.3818373231       -1.0875314945       -5.9369200828  CLST         257          1.0000000000
       772       258  TIP3  OH2          -5.2959868360       10.3272086424        7.8853771758  CLST         258          1.0000000000
       773       258  TIP3  H1           -5.3431720822       11.0112853574        7.1498982950  CLST         258          1.0000000000
       774       258  TIP3  H2           -5.9604849394       10.7368013867        8.4787711204  CLST         258          1.0000000000
       775       259  TIP3  OH2          10.1852638764        6.1346622226        0.6708394585  CLST         259          1.0000000000
       776       259  TIP3  H1           10.9524624590        6.6990642242        0.8797850237  CLST         259          1.0000000000
       777       259  TIP3  H2            9.8528988142        6.0811391585        1.6052080965  CLST         259          1.0000000000
       778       260  TIP3  OH2          -4.9722522986        7.7462634490        8.8949089121  CLST         260          1.0000000000
       779       260  TIP3  H1           -5.1795908409        8.4903762823        8.2888943248  CLST         260          1.0000000000
       780       260  TIP3  H2           -5.8194840300        7.2504228235        8.9248014796  CLST         260          1.0000000000
       781       261  TIP3  OH2           0.6251652267       -4.2446003730       12.3061524397  CLST         261          1.0000000000
       782       261  TIP3  H1            0.0075433705       -5.7306357765       12.4044371711  CLST         261          1.0000000000
       783       261  TIP3  H2            1.6390742317       -5.1487683529       13.1367576382  CLST         261          1.0000000000
       784       262  TIP3  OH2         -11.0255010092        4.7832002267        6.0704467861  CLST         262          1.0000000000
       785       262  TIP3  H1          -10.4105240630        4.6431976765        5.3136550687  CLST         262          1.0000000000
       786       262  TIP3  H2          -11.8487069792        5.1261537426        5.6732270410  CLST         262          1.0000000000
       787       263  TIP3  OH2           1.7378891457        0.8819482323        6.4639780603  CLST         263          1.0000000000
       788       263  TIP3  H1            2.3084024579        1.6742774926        6.2228284023  CLST         263          1.0000000000
       789       263  TIP3  H2            2.3401619070        0.2302297677        6.8320487384  CLST         263          1.0000000000
       790       264  TIP3  OH2           5.2606706089       -4.2181864355       -9.7027184437  CLST         264          1.0000000000
       791       264  TIP3  H1            4.9910961288       -5.1838915825       -9.9193767411  CLST         264          1.0000000000
       792       264  TIP3  H2            4.5030331139       -3.8374430258      -10.2530937361  CLST         264          1.0000000000
       793       265  TIP3  OH2           7.6959335301        4.8090459418      -10.2505303782  CLST         265          1.0000000000
       794       265  TIP3  H1            7.9630065678        5.6647110604      -10.6403444061  CLST         265          1.0000000000
       795       265  TIP3  H2            8.2486946807        4.8892843980       -9.3907137923  CLST         265          1.0000000000
       796       266  TIP3  OH2          -8.0473837895       -8.8066161772        0.0645686416  CLST         266          1.0000000000
       797       266  TIP3  H1           -7.8987242128       -9.0991661900        0.9881439461  CLST         266          1.0000000000
       798       266  TIP3  H2           -8.2901425671       -7.8715042984        0.2347326844  CLST         266          1.0000000000
       799       267  TIP3  OH2           1.2116275218        2.4931586494       -5.1936730110  CLST         267          1.0000000000
       800       267  TIP3  H1            1.5411292384        3.2357979152       -4.6077520874  CLST         267          1.0000000000
       801       267  TIP3  H2            1.8518553420        1.7845528742       -5.0102740494  CLST         267          1.0000000000
       802       268  TIP3  OH2           5.1968571546       -4.7185944527       -6.8732275454  CLST         268          1.0000000000
       803       268  TIP3  H1            5.2098386664       -4.4733043650       -7.8411683680  CLST         268          1.0000000000
       804       268  TIP3  H2            4.9943251868       -5.6840586023       -6.9338790593  CLST         268          1.0000000000
       805       269  TIP3  OH2           5.4375206426       10.8661551359       -0.1610038832  CLST         269          1.0000000000
       806       269  TIP3  H1            6.3443890183       10.7326402179       -0.5124613113  CLST         269          1.0000000000
       807       269  TIP3  H2            5.6239290425       11.8059548129        0.1758769443  CLST         269          1.0000000000
       808       270  TIP3  OH2           1.2394327011        9.3952322698       -8.0098464110  CLST         270          1.0000000000
       809       270  TIP3  H1            1.3759801991        8.6371993096       -8.5080138792  CLST         270          1.0000000000
       810       270  TIP3  H2            0.6486673716        8.9639755514       -7.2774347703  CLST         270          1.0000000000
       811       271  TIP3  OH2          -6.5640415118       -9.0384727052       -2.1432211725  CLST         271          1.0000000000
       812       271  TIP3  H1           -5.9455369937       -9.1939206460       -1.3186087085  CLST         271          1.0000000000
       813       271  TIP3  H2           -7.3066967282       -8.9682958171       -1.4495413990  CLST         271          1.0000000000
       814       272  TIP3  OH2           9.4767390762       -8.3172255430        5.8901024143  CLST         272          1.0000000000
       815       272  TIP3  H1            8.4452522588       -8.3055821610        5.8806268413  CLST         272          1.0000000000
       816       272  TIP3  H2            9.5169435907       -7.8106332392        4.9952710456  CLST         272          1.0000000000
       817       273  TIP3  OH2         -13.9725519272        9.4257562229        3.2451798138  CLST         273          1.0000000000
       818       273  TIP3  H1          -14.3670677104       10.0099643591        3.9842337202  CLST         273          1.0000000000
       819       273  TIP3  H2          -13.3666382567        8.9571010999        3.9428761191  CLST         273          1.0000000000
       820       274  TIP3  OH2           4.1026342439       13.0573265910       -4.0479291240  CLST         274          1.0000000000
       821       274  TIP3  H1            3.3278842229       12.4479444392       -2.5557252450  CLST         274          1.0000000000
       822       274  TIP3  H2            3.8916542451       13.7213184329       -3.5044760481  CLST         274          1.0000000000
       823       275  TIP3  OH2           8.6619964760      -11.1341959381        5.9283639933  CLST         275          1.0000000000
       824       275  TIP3  H1            9.1030016044      -10.2860554735        6.1577540425  CLST         275          1.0000000000
       825       275  TIP3  H2            9.3463620710      -11.7731362430        5.6029818978  CLST         275          1.0000000000
       826       276  TIP3  OH2          -0.2430917724       -5.7406432409        1.4858357458  CLST         276          1.0000000000
       827       276  TIP3  H1           -0.8390717175       -6.2603123335        0.9076692209  CLST         276          1.0000000000
       828       276  TIP3  H2           -0.9139569296       -5.1141190547        1.9640555454  CLST         276          1.0000000000
       829       277  TIP3  OH2           6.5485158652        6.5467557648       -6.9913136252  CLST         277          1.0000000000
       830       277  TIP3  H1            5.9401165357        5.9402142164       -7.5065168774  CLST         277          1.0000000000
       831       277  TIP3  H2            6.6827718714        7.3427732882       -7.5309820684  CLST         277          1.0000000000
       832       278  TIP3  OH2          -0.5198869545       -7.4970420187        3.6012192046  CLST         278          1.0000000000
       833       278  TIP3  H1           -0.3060981778       -6.8537086390        2.8530819241  CLST         278          1.0000000000
       834       278  TIP3  H2           -0.6994018709       -6.7632846655        4.2937924830  CLST         278          1.0000000000
       835       279  TIP3  OH2         -13.4570576149        6.4660013036        0.4443655685  CLST         279          1.0000000000
       836       279  TIP3  H1          -13.6840538416        5.5023229465        0.3334891841  CLST         279          1.0000000000
       837       279  TIP3  H2          -12.4878703373        6.4059447319        0.8118853256  CLST         279          1.0000000000
       838       280  TIP3  OH2          -3.2108156165      -10.1352380047        5.4896603921  CLST         280          1.0000000000
       839       280  TIP3  H1           -3.0430359762       -9.2470134790        5.8694424374  CLST         280          1.0000000000
       840       280  TIP3  H2           -3.7047855732       -9.7718822965        4.7039604630  CLST         280          1.0000000000
       841       281  TIP3  OH2           8.0889193729        7.8020697430      -10.7502753589  CLST         281          1.0000000000
       842       281  TIP3  H1            8.4432117553        8.6969143349      -10.5987878441  CLST         281          1.0000000000
       843       281  TIP3  H2            7.1111478485        7.9167188250      -10.8290030523  CLST         281          1.0000000000
       844       282  TIP3  OH2          -7.6751975875      -11.8035276771       10.0604330745  CLST         282          1.0000000000
       845       282  TIP3  H1           -8.4954547944      -11.4869633405        9.6840541408  CLST         282          1.0000000000
       846       282  TIP3  H2           -7.2517532322      -12.2808875124        9.2908046695  CLST         282          1.0000000000
       847       283  TIP3  OH2           4.4480225083        8.4299758183       -4.7563396333  CLST         283          1.0000000000
       848       283  TIP3  H1            4.6365650563        9.3714711571       -4.9453925164  CLST         283          1.0000000000
       849       283  TIP3  H2            3.9900939895        8.4417445602       -3.8710815473  CLST         283          1.0000000000
       850       284  TIP3  OH2          11.8201835376        8.3482274784       -1.2299907480  CLST         284          1.0000000000
       851       284  TIP3  H1           11.9934954950        7.9594125488       -2.0972933784  CLST         284          1.0000000000
       852       284  TIP3  H2           10.8716842708        8.6237009776       -1.3159652700  CLST         284          1.0000000000
       853       285  TIP3  OH2          -5.3954659336        1.9838179741        8.7619503801  CLST         285          1.0000000000
       854       285  TIP3  H1           -4.5565133170        1.8072966816        8.2388538520  CLST         285          1.0000000000
       855       285  TIP3  H2           -4.9372606632        2.7133773430        9.3142485118  CLST         285          1.0000000000
       856       286  TIP3  OH2           2.9779484449        5.7421103160       -0.6265973986  CLST         286          1.0000000000
       857       286  TIP3  H1            2.2380638291        5.6307111508        0.0204717329  CLST         286          1.0000000000
       858       286  TIP3  H2            3.7127312095        5.8317487415        0.0165609228  CLST         286          1.0000000000
       859       287  TIP3  OH2          -4.0673602249        9.3196900369       11.1028163605  CLST         287          1.0000000000
       860       287  TIP3  H1           -4.5417456239        9.9942585091       11.6340938147  CLST         287          1.0000000000
       861       287  TIP3  H2           -4.7819825803        8.7677795731       10.7367566184  CLST         287          1.0000000000
       862       288  TIP3  OH2           5.5198488830        3.3465682444       -9.4251888822  CLST         288          1.0000000000
       863       288  TIP3  H1            5.4557129696        2.5152945208       -9.8651519972  CLST         288          1.0000000000
       864       288  TIP3  H2            6.3466823826        3.7719490962       -9.8599771205  CLST         288          1.0000000000
       865       289  TIP3  OH2          -7.1057498270       -5.0506071514       -8.3108379733  CLST         289          1.0000000000
       866       289  TIP3  H1           -7.8553813024       -4.3896127386       -8.1658466235  CLST         289          1.0000000000
       867       289  TIP3  H2           -6.4768036959       -4.8200830780       -7.6705676144  CLST         289          1.0000000000
       868       290  TIP3  OH2           2.1343644096      -12.0329959951       11.2043377037  CLST         290          1.0000000000
       869       290  TIP3  H1            2.6752924497      -12.6092044364       10.6811123685  CLST         290          1.0000000000
       870       290  TIP3  H2            2.7611824757      -11.5918057155       11.7792444084  CLST         290          1.0000000000
       871       291  TIP3  OH2         -10.2541317822       -3.5648321042        3.0047686725  CLST         291          1.0000000000
       872       291  TIP3  H1          -11.1178257876       -3.8089001346        3.4330049337  CLST         291          1.0000000000
       873       291  TIP3  H2          -10.4762676240       -3.7852956913        2.1070653175  CLST         291          1.0000000000
       874       292  TIP3  OH2          12.0874674797        3.5859335556       -4.7115182079  CLST         292          1.0000000000
       875       292  TIP3  H1           11.1357816416        3.3877574485       -4.5881473733  CLST         292          1.0000000000
       876       292  TIP3  H2           11.9954284879        4.0961511180       -5.5643764718  CLST         292          1.0000000000
       877       293  TIP3  OH2           8.9817650199       10.7226763404       11.1331455028  CLST         293          1.0000000000
       878       293  TIP3  H1            8.7045448757       11.5437867495       11.5998105771  CLST         293          1.0000000000
       879       293  TIP3  H2            9.2325227413       11.0799544798       10.2408643979  CLST         293          1.0000000000
       880       294  TIP3  OH2           4.1579910250        4.4352605191       -2.4413741946  CLST         294          1.0000000000
       881       294  TIP3  H1            3.6791651157        4.9275615610       -1.7123207238  CLST         294          1.0000000000
       882       294  TIP3  H2            4.2645879928        5.0918234252       -3.1478706533  CLST         294          1.0000000000
       883       295  TIP3  OH2          -2.4849858811      -13.4704768652       -8.8417669017  CLST         295          1.0000000000
       884       295  TIP3  H1           -3.0302652679      -13.1110290922       -8.1231065168  CLST         295          1.0000000000
       885       295  TIP3  H2           -1.6500642609      -13.6663812004       -8.3783602472  CLST         295          1.0000000000
       886       296  TIP3  OH2          -1.5781647509       11.6120476914      -13.0084808505  CLST         296          1.0000000000
       887       296  TIP3  H1           -0.7066539961       11.1846361235      -13.1672994678  CLST         296          1.0000000000
       888       296  TIP3  H2           -1.7044850506       11.3303035760      -12.0896890219  CLST         296          1.0000000000
       889       297  TIP3  OH2           8.0196419469       -0.4276415751       11.2716099466  CLST         297          1.0000000000
       890       297  TIP3  H1            8.4250885917       -1.3103869964       11.0545579548  CLST         297          1.0000000000
       891       297  TIP3  H2            7.1387120877       -0.8052262658       11.5476509663  CLST         297          1.0000000000
       892       298  TIP3  OH2           1.1275061360       -1.2422952659       -7.5219292171  CLST         298          1.0000000000
       893       298  TIP3  H1            1.5520253015       -0.6797790257       -8.2519927265  CLST         298          1.0000000000
       894       298  TIP3  H2            0.9298177755       -2.0442471759       -8.1533880165  CLST         298          1.0000000000
       895       299  TIP3  OH2           2.9655169163       10.1751065693       12.6795545483  CLST         299          1.0000000000
       896       299  TIP3  H1            2.2257358966       10.7183226803       12.3864061685  CLST         299          1.0000000000
       897       299  TIP3  H2            2.3613892520        9.4614956446       12.8783276148  CLST         299          1.0000000000
       898       300  TIP3  OH2         -10.8468109757        5.2861095873       -3.6228160569  CLST         300          1.0000000000
       899       300  TIP3  H1          -10.8638244573        5.6479920910       -4.5203719983  CLST         300          1.0000000000
       900       300  TIP3  H2          -11.0930748830        6.1822327413       -3.1810396634  CLST         300          1.0000000000
       901       301  TIP3  OH2           9.6944817620       -8.1628399588       11.3245097964  CLST         301          1.0000000000
       902       301  TIP3  H1            9.5153513620       -7.8930670523       12.2503363096  CLST         301          1.0000000000
       903       301  TIP3  H2            9.7120723883       -9.1471040149       11.3494761952  CLST         301          1.0000000000
       904       302  TIP3  OH2           7.8651868431       12.8624020987        5.4952319379  CLST         302          1.0000000000
       905       302  TIP3  H1            7.5765060209       13.2799324497        4.6470169628  CLST         302          1.0000000000
       906       302  TIP3  H2            7.1056838671       12.1979093831        5.5078013077  CLST         302          1.0000000000
       907       303  TIP3  OH2         -10.7777632239        1.3071030122       -1.9978866232  CLST         303          1.0000000000
       908       303  TIP3  H1           -9.8021288139        1.3512577077       -1.9332349526  CLST         303          1.0000000000
       909       303  TIP3  H2          -10.8418244214        0.6918874475       -2.7693343772  CLST         303          1.0000000000
       910       304  TIP3  OH2          -7.9070729560        1.0466248176      -14.9581499845  CLST         304          1.0000000000
       911       304  TIP3  H1           -7.3642463723        0.2577617822      -14.6580441416  CLST         304          1.0000000000
       912       304  TIP3  H2           -7.3792987461        1.6622394454      -15.4186655006  CLST         304          1.0000000000
       913       305  TIP3  OH2           3.4505783059       -3.8467438546       13.9658489174  CLST         305          1.0000000000
       914       305  TIP3  H1            4.2800217765       -4.1160281660       13.6549907568  CLST         305          1.0000000000
       915       305  TIP3  H2            3.4898138434       -2.9247010793       14.2314856887  CLST         305          1.0000000000
       916       306  TIP3  OH2           8.8719424990      -12.0081197362      -11.1981389259  CLST         306          1.0000000000
       917       306  TIP3  H1            9.6388028509      -11.7389299139      -11.7745603755  CLST         306          1.0000000000
       918       306  TIP3  H2            9.0209904049      -12.7342506631      -10.7717202955  CLST         306          1.0000000000
       919       307  TIP3  OH2           9.2665626122        7.8040172680       -7.5398312516  CLST         307          1.0000000000
       920       307  TIP3  H1            8.5276804267        8.4427773528       -7.7619810515  CLST         307          1.0000000000
       921       307  TIP3  H2            9.5530742021        8.0057228692       -6.6359518913  CLST         307          1.0000000000
       922       308  TIP3  OH2         -10.9410455630       -4.9334815801        8.8317316534  CLST         308          1.0000000000
       923       308  TIP3  H1          -11.0068207665       -5.7053068439        9.4893583446  CLST         308          1.0000000000
       924       308  TIP3  H2          -10.0303154862       -4.6609486500        9.0972720846  CLST         308          1.0000000000
       925       309  TIP3  OH2          -1.8769901810       -0.4729890822        5.6778216853  CLST         309          1.0000000000
       926       309  TIP3  H1           -2.6386952847       -0.8117019188        5.1362447363  CLST         309          1.0000000000
       927       309  TIP3  H2           -1.7487545365       -1.2921701201        6.2134021694  CLST         309          1.0000000000
       928       310  TIP3  OH2          -5.1231717698       -0.6226992022        7.1768953412  CLST         310          1.0000000000
       929       310  TIP3  H1           -4.4148743642        0.0299692439        7.3319425951  CLST         310          1.0000000000
       930       310  TIP3  H2           -5.0969196331       -1.1737012075        7.9930984654  CLST         310          1.0000000000
       931       311  TIP3  OH2          -7.1688456054        8.4020410190      -12.2870839690  CLST         311          1.0000000000
       932       311  TIP3  H1           -6.5307943815        7.7443576395      -12.7480253082  CLST         311          1.0000000000
       933       311  TIP3  H2           -7.2019341063        7.9800828526      -11.4015682719  CLST         311          1.0000000000
       934       312  TIP3  OH2           6.4349762731       -0.9040560606       -6.3882645569  CLST         312          1.0000000000
       935       312  TIP3  H1            6.2276751020       -0.0260711881       -5.9696493999  CLST         312          1.0000000000
       936       312  TIP3  H2            6.3794793542       -1.4754431920       -5.6063754191  CLST         312          1.0000000000
       937       313  TIP3  OH2          -8.9501443638      -10.5947862282        7.1503030142  CLST         313          1.0000000000
       938       313  TIP3  H1           -8.3306057103       -9.8035154927        7.0272534189  CLST         313          1.0000000000
       939       313  TIP3  H2           -9.2698554805      -10.5779517134        6.2018642684  CLST         313          1.0000000000
       940       314  TIP3  OH2          -1.4801383743      -12.1475510704      -10.9275410203  CLST         314          1.0000000000
       941       314  TIP3  H1           -1.3840711873      -11.3359654326      -10.3969118985  CLST         314          1.0000000000
       942       314  TIP3  H2           -1.9409254397      -12.7418061702      -10.2817865868  CLST         314          1.0000000000
       943       315  TIP3  OH2          -1.3017014068       -0.6430038332       -6.4719977145  CLST         315          1.0000000000
       944       315  TIP3  H1           -0.4186858877       -0.8865168216       -6.8886344439  CLST         315          1.0000000000
       945       315  TIP3  H2           -0.9952974167       -0.2006492201       -5.6368912384  CLST         315          1.0000000000
       946       316  TIP3  OH2         -13.2436076276       -3.9364485062       -5.4418782224  CLST         316          1.0000000000
       947       316  TIP3  H1          -12.5400890226       -4.2670301426       -6.1033290858  CLST         316          1.0000000000
       948       316  TIP3  H2          -12.8736613845       -2.9917462320       -5.5665792954  CLST         316          1.0000000000
       949       317  TIP3  OH2          -6.2137271309        0.1091711497       -3.8689303649  CLST         317          1.0000000000
       950       317  TIP3  H1           -5.3586974536        0.0455214280       -3.3481059154  CLST         317          1.0000000000
       951       317  TIP3  H2           -6.8069783410        0.2291079210       -3.0691433727  CLST         317          1.0000000000
       952       318  TIP3  OH2          -3.9250255043       -9.6616729640       -9.3206852082  CLST         318          1.0000000000
       953       318  TIP3  H1           -3.9825067679       -9.8347987300       -8.3443571413  CLST         318          1.0000000000
       954       318  TIP3  H2           -2.9166237218       -9.6201122032       -9.3516204806  CLST         318          1.0000000000
       955       319  TIP3  OH2           5.5719236814       10.8555208719        8.6310641086  CLST         319          1.0000000000
       956       319  TIP3  H1            6.4056045128       10.7688248546        8.1513433016  CLST         319          1.0000000000
       957       319  TIP3  H2            5.5928450322       11.5270409936        9.2926351141  CLST         319          1.0000000000
       958       320  TIP3  OH2         -10.6128349597        1.0043896589      -14.5635161452  CLST         320          1.0000000000
       959       320  TIP3  H1           -9.5924880514        0.9191050070      -14.6865200480  CLST         320          1.0000000000
       960       320  TIP3  H2          -10.5772486800        0.1463351237      -14.1044709053  CLST         320          1.0000000000
       961       321  TIP3  OH2          -9.9463046399       10.1956130841       -9.8348482637  CLST         321          1.0000000000
       962       321  TIP3  H1          -10.8778776390       10.0653724546       -9.9288985881  CLST         321          1.0000000000
       963       321  TIP3  H2           -9.7806175512       10.2600914911      -11.6245927424  CLST         321          1.0000000000
       964       322  TIP3  OH2         -12.6366667028       -1.8236633519       -2.4915828747  CLST         322          1.0000000000
       965       322  TIP3  H1          -12.3138316768       -1.2935108232       -3.2652821208  CLST         322          1.0000000000
       966       322  TIP3  H2          -11.7474246665       -1.8360482693       -2.0336662183  CLST         322          1.0000000000
       967       323  TIP3  OH2          -0.9784412357        3.9762150816        4.2341306555  CLST         323          1.0000000000
       968       323  TIP3  H1           -0.2694546461        3.2855161450        4.2873665535  CLST         323          1.0000000000
       969       323  TIP3  H2           -1.0209788524        4.1185090566        3.2598725349  CLST         323          1.0000000000
       970       324  TIP3  OH2         -11.0158380795        6.2533768721        1.5310538261  CLST         324          1.0000000000
       971       324  TIP3  H1          -11.1384864087        5.5804099837        2.2656421042  CLST         324          1.0000000000
       972       324  TIP3  H2          -10.2239917462        6.7578649635        1.9439304832  CLST         324          1.0000000000
       973       325  TIP3  OH2          -4.6010755501        0.7622636345        3.5485910600  CLST         325          1.0000000000
       974       325  TIP3  H1           -5.6595619960        0.8027158446        3.5890526278  CLST         325          1.0000000000
       975       325  TIP3  H2           -4.3962401863        1.6348115881        3.2194560505  CLST         325          1.0000000000
       976       326  TIP3  OH2           9.2103687047        8.7123607825       -2.7555354517  CLST         326          1.0000000000
       977       326  TIP3  H1            8.9941795176        8.1200078954       -1.9862577733  CLST         326          1.0000000000
       978       326  TIP3  H2            8.3708360914        8.6500385344       -3.2225374364  CLST         326          1.0000000000
       979       327  TIP3  OH2          10.4442409715       -3.8240839254      -13.0966252316  CLST         327          1.0000000000
       980       327  TIP3  H1           10.8103625960       -3.6494666314      -13.8454678033  CLST         327          1.0000000000
       981       327  TIP3  H2           10.1193641668       -3.0798832711      -12.5293954644  CLST         327          1.0000000000
       982       328  TIP3  OH2           2.2229412647        6.9309788083       -9.7570513496  CLST         328          1.0000000000
       983       328  TIP3  H1            2.4627910891        6.2065018218       -9.1501429153  CLST         328          1.0000000000
       984       328  TIP3  H2            3.1761041774        7.1393344272       -9.8428571530  CLST         328          1.0000000000
       985       329  TIP3  OH2           1.4183565786      -11.6025055805       -2.1898143433  CLST         329          1.0000000000
       986       329  TIP3  H1            1.7412361792      -10.4316771248       -2.5836390675  CLST         329          1.0000000000
       987       329  TIP3  H2            2.2906110602      -11.7263712837       -1.6942804967  CLST         329          1.0000000000
       988       330  TIP3  OH2          -9.4552836545       -1.0092650922        3.3636189025  CLST         330          1.0000000000
       989       330  TIP3  H1           -9.5677061986       -2.0100596511        3.4249718475  CLST         330          1.0000000000
       990       330  TIP3  H2          -10.2596482807       -0.7095953360        3.8942394636  CLST         330          1.0000000000
       991       331  TIP3  OH2          12.2681607798        9.6973012593       -9.2454495071  CLST         331          1.0000000000
       992       331  TIP3  H1           13.0908266946        9.5576765607       -9.4302792560  CLST         331          1.0000000000
       993       331  TIP3  H2           11.9156913186        8.7698722966       -9.2110982391  CLST         331          1.0000000000
       994       332  TIP3  OH2          11.3088684292       -1.3876155531       -4.5380997399  CLST         332          1.0000000000
       995       332  TIP3  H1           12.2715678545       -1.6782243526       -4.8588243743  CLST         332          1.0000000000
       996       332  TIP3  H2           11.6096979704       -0.5519382254       -4.1281042676  CLST         332          1.0000000000
       997       333  TIP3  OH2          10.6208932621      -14.1277301271        7.9896461185  CLST         333          1.0000000000
       998       333  TIP3  H1            9.8112418089      -13.5756004170        8.1099656545  CLST         333          1.0000000000
       999       333  TIP3  H2           10.6315259398      -14.1076677277        7.0212408306  CLST         333          1.0000000000
      1000       334  TIP3  OH2         -10.7124692168       -9.6924717575        9.2405885837  CLST         334          1.0000000000
      1001       334  TIP3  H1          -11.5317215153      -10.1203750026        8.8776919226  CLST         334          1.0000000000
      1002       334  TIP3  H2          -10.0700981845       -9.9775676725        8.4849587961  CLST         334          1.0000000000
      1003       335  TIP3  OH2           6.7855014143       -9.9991126447        1.3908697611  CLST         335          1.0000000000
      1004       335  TIP3  H1            6.7303749753       -9.9413115308        2.4233360531  CLST         335          1.0000000000
      1005       335  TIP3  H2            5.8507908161      -10.0828786407        1.1688761745  CLST         335          1.0000000000
      1006       336  TIP3  OH2          -9.1460969847       -3.5996591570       -3.4467668698  CLST         336          1.0000000000
      1007       336  TIP3  H1           -9.3140949180       -4.4373981598       -3.9317294034  CLST         336          1.0000000000
      1008       336  TIP3  H2           -9.1707865609       -3.0528826182       -4.3046054457  CLST         336          1.0000000000
      1009       337  TIP3  OH2          -1.5553600395       -4.8665102985        8.0648613807  CLST         337          1.0000000000
      1010       337  TIP3  H1           -1.2251604276       -4.4750223590        8.9110265625  CLST         337          1.0000000000
      1011       337  TIP3  H2           -2.1247849287       -4.0643741613        7.8503407633  CLST         337          1.0000000000
      1012       338  TIP3  OH2          -0.5605629186        2.7312316047       10.6124985092  CLST         338          1.0000000000
      1013       338  TIP3  H1           -0.5024866575        2.3447217884        9.6869738036  CLST         338          1.0000000000
      1014       338  TIP3  H2           -0.1115112990        2.0859279274       11.1414632870  CLST         338          1.0000000000
      1015       339  TIP3  OH2           7.8156514906        8.0878976367        2.8832275519  CLST         339          1.0000000000
      1016       339  TIP3  H1            7.4497815141        8.6496464100        3.6002161615  CLST         339          1.0000000000
      1017       339  TIP3  H2            7.0953205268        7.6876544810        2.3352557818  CLST         339          1.0000000000
      1018       340  TIP3  OH2          -4.7899302702      -11.7750057271      -11.1311635992  CLST         340          1.0000000000
      1019       340  TIP3  H1           -4.4835964216      -11.1125990617      -10.4457834735  CLST         340          1.0000000000
      1020       340  TIP3  H2           -4.2680745617      -12.5580139645      -10.9290146304  CLST         340          1.0000000000
      1021       341  TIP3  OH2          -6.6819361683        4.6418118632        9.3363675086  CLST         341          1.0000000000
      1022       341  TIP3  H1           -5.7679187024        4.5645678100        9.7638879306  CLST         341          1.0000000000
      1023       341  TIP3  H2           -6.8372715195        3.7172480439        9.1259125011  CLST         341          1.0000000000
      1024       342  TIP3  OH2          -4.5118836940      -10.9273640635       13.9653887256  CLST         342          1.0000000000
      1025       342  TIP3  H1           -5.2822523435      -10.8585965978       13.2620955896  CLST         342          1.0000000000
      1026       342  TIP3  H2           -4.5480853434      -10.7332679015       14.7524892166  CLST         342          1.0000000000
      1027       343  TIP3  OH2           1.3355851733       -9.0239027398       -9.8301087803  CLST         343          1.0000000000
      1028       343  TIP3  H1            1.5146343195       -8.1710146730      -10.2878157905  CLST         343          1.0000000000
      1029       343  TIP3  H2            1.5289246603       -9.6012568258      -10.6116972560  CLST         343          1.0000000000
      1030       344  TIP3  OH2           5.4826630060       -4.0266091086        6.4495479139  CLST         344          1.0000000000
      1031       344  TIP3  H1            4.9638233989       -4.5629245717        7.0981993820  CLST         344          1.0000000000
      1032       344  TIP3  H2            6.0948055445       -4.6720446219        6.0046402776  CLST         344          1.0000000000
      1033       345  TIP3  OH2          13.0352180242        7.1540041687        9.0104664707  CLST         345          1.0000000000
      1034       345  TIP3  H1           12.3774544245        6.5663178578        8.6068797049  CLST         345          1.0000000000
      1035       345  TIP3  H2           12.4675697835        7.3835204227        9.8018619864  CLST         345          1.0000000000
      1036       346  TIP3  OH2           9.3299127784        9.3894279012        1.0012973126  CLST         346          1.0000000000
      1037       346  TIP3  H1            9.5158279387       10.2061101168        1.5639317549  CLST         346          1.0000000000
      1038       346  TIP3  H2            8.8518928378        8.8617366916        1.6971529395  CLST         346          1.0000000000
      1039       347  TIP3  OH2          -5.0475220633        2.8463664428       -9.5015039309  CLST         347          1.0000000000
      1040       347  TIP3  H1           -5.8645525412        3.0408892737       -8.9654884274  CLST         347          1.0000000000
      1041       347  TIP3  H2           -4.4271607130        2.6534044413       -8.7721438283  CLST         347          1.0000000000
      1042       348  TIP3  OH2          -1.2404061666        6.2028248092        5.6887413708  CLST         348          1.0000000000
      1043       348  TIP3  H1           -1.2551155053        5.2761106710        5.2598883781  CLST         348          1.0000000000
      1044       348  TIP3  H2           -0.5886060496        6.5873832193        4.9896480815  CLST         348          1.0000000000
      1045       349  TIP3  OH2          -4.1780757232        5.1953217958       -2.6470944636  CLST         349          1.0000000000
      1046       349  TIP3  H1           -3.7774623042        4.6219160818       -3.3498954987  CLST         349          1.0000000000
      1047       349  TIP3  H2           -3.4020512526        5.8311008684       -2.6719299578  CLST         349          1.0000000000
      1048       350  TIP3  OH2          -2.6474079735        8.9701445382        5.1949549138  CLST         350          1.0000000000
      1049       350  TIP3  H1           -3.0009489057        8.6221663993        4.3632197654  CLST         350          1.0000000000
      1050       350  TIP3  H2           -2.7645401179        8.1498889477        5.6989358948  CLST         350          1.0000000000
      1051       351  TIP3  OH2           4.7927853010       -7.5580919080       -7.7864295780  CLST         351          1.0000000000
      1052       351  TIP3  H1            4.1261619586       -8.2938900128       -7.6459477832  CLST         351          1.0000000000
      1053       351  TIP3  H2            4.5824959649       -7.3765204852       -8.7377059887  CLST         351          1.0000000000
      1054       352  TIP3  OH2         -10.3632571077      -10.9498476157        1.7479146134  CLST         352          1.0000000000
      1055       352  TIP3  H1           -9.4197646077      -10.7507926826        1.5335588524  CLST         352          1.0000000000
      1056       352  TIP3  H2          -10.8329148596      -10.3595273857        1.1253734553  CLST         352          1.0000000000
      1057       353  TIP3  OH2          10.8198941817       -8.1690179671       -8.5541051273  CLST         353          1.0000000000
      1058       353  TIP3  H1           10.0314307124       -8.7158677615       -8.6615367549  CLST         353          1.0000000000
      1059       353  TIP3  H2           11.3555190303       -8.2583143571       -7.7728408412  CLST         353          1.0000000000
      1060       354  TIP3  OH2           6.8211235146      -10.6786933414        4.0107048628  CLST         354          1.0000000000
      1061       354  TIP3  H1            7.5151925803      -11.0238301672        4.6860323092  CLST         354          1.0000000000
      1062       354  TIP3  H2            6.5234389919       -9.9828222371        4.6512497922  CLST         354          1.0000000000
      1063       355  TIP3  OH2          -7.1851401718        9.0924789735       -8.7753409362  CLST         355          1.0000000000
      1064       355  TIP3  H1           -6.7881314445       10.0028055781       -8.6178543744  CLST         355          1.0000000000
      1065       355  TIP3  H2           -8.1204823683        9.2992275883       -8.7971871847  CLST         355          1.0000000000
      1066       356  TIP3  OH2          12.4102756080        1.0251163148       -1.9430543888  CLST         356          1.0000000000
      1067       356  TIP3  H1           11.4460758578        0.8166591507       -2.0677971331  CLST         356          1.0000000000
      1068       356  TIP3  H2           12.6505877021        0.6867071010       -1.0460774819  CLST         356          1.0000000000
      1069       357  TIP3  OH2          -0.5207259276       -0.4772139597       -1.9761296212  CLST         357          1.0000000000
      1070       357  TIP3  H1            0.3474491309       -0.9931151917       -2.1930337664  CLST         357          1.0000000000
      1071       357  TIP3  H2           -0.6245216716       -0.2299780526       -2.9478748620  CLST         357          1.0000000000
      1072       358  TIP3  OH2          -5.5102060624        7.0784191382       -7.5929463509  CLST         358          1.0000000000
      1073       358  TIP3  H1           -5.9667580601        7.7646455592       -8.1453567871  CLST         358          1.0000000000
      1074       358  TIP3  H2           -6.3161218831        6.5636614342       -7.3145198787  CLST         358          1.0000000000
      1075       359  TIP3  OH2          -5.1097653333       12.0622838577        6.0201625193  CLST         359          1.0000000000
      1076       359  TIP3  H1           -5.4514561413       11.9711769577        5.0956341359  CLST         359          1.0000000000
      1077       359  TIP3  H2           -4.1275483374       12.2142202155        5.8484275686  CLST         359          1.0000000000
      1078       360  TIP3  OH2          -6.8266483686        5.7886815605       -3.2635980311  CLST         360          1.0000000000
      1079       360  TIP3  H1           -7.0098035028        6.3087817367       -2.4482615877  CLST         360          1.0000000000
      1080       360  TIP3  H2           -5.9207751617        5.5390925255       -3.0389818759  CLST         360          1.0000000000
      1081       361  TIP3  OH2          -1.5836000522       -1.0552511537        9.9710536990  CLST         361          1.0000000000
      1082       361  TIP3  H1           -1.7106307397       -0.2809329594       10.5260523473  CLST         361          1.0000000000
      1083       361  TIP3  H2           -1.7063511193       -1.8759903905       10.5313825713  CLST         361          1.0000000000
      1084       362  TIP3  OH2         -10.5537357577        2.9038356027        0.5489517939  CLST         362          1.0000000000
      1085       362  TIP3  H1          -10.4453167516        3.6158440987       -0.1298151971  CLST         362          1.0000000000
      1086       362  TIP3  H2          -10.9026710096        2.2387106924       -0.0622333795  CLST         362          1.0000000000
      1087       363  TIP3  OH2          10.4928770503        2.3600625896       10.1107589009  CLST         363          1.0000000000
      1088       363  TIP3  H1           10.8859690723        1.1491698802       10.1233428306  CLST         363          1.0000000000
      1089       363  TIP3  H2           11.0973082555        2.9544354736       10.1511599835  CLST         363          1.0000000000
      1090       364  TIP3  OH2           7.6624300175       -5.5565392352       -6.2728703958  CLST         364          1.0000000000
      1091       364  TIP3  H1            6.8424549451       -5.0598106281       -6.5488618177  CLST         364          1.0000000000
      1092       364  TIP3  H2            8.1224482918       -5.6117354996       -7.1744248603  CLST         364          1.0000000000
      1093       365  TIP3  OH2          -6.2355504453       -6.8477108662        2.7080398545  CLST         365          1.0000000000
      1094       365  TIP3  H1           -6.8405004285       -6.1831097623        2.4215832172  CLST         365          1.0000000000
      1095       365  TIP3  H2           -6.9751116121       -7.3822853521        3.1083557176  CLST         365          1.0000000000
      1096       366  TIP3  OH2           1.7823218896       -1.4236016815       -2.8320666355  CLST         366          1.0000000000
      1097       366  TIP3  H1            2.7244500501       -1.4876872732       -2.5730776571  CLST         366          1.0000000000
      1098       366  TIP3  H2            1.9346135471       -1.1081945214       -3.7657884693  CLST         366          1.0000000000
      1099       367  TIP3  OH2          -5.3042853750       11.6966200662       12.3193695401  CLST         367          1.0000000000
      1100       367  TIP3  H1           -6.0803287937       12.0729743879       11.7659795492  CLST         367          1.0000000000
      1101       367  TIP3  H2           -5.5388821534       11.9852255426       13.1235949931  CLST         367          1.0000000000
      1102       368  TIP3  OH2          -2.7683560784        6.5379966119        0.9446305530  CLST         368          1.0000000000
      1103       368  TIP3  H1           -2.9169914123        7.3383089859        0.3417788301  CLST         368          1.0000000000
      1104       368  TIP3  H2           -3.1150854871        6.9219944373        1.7778448075  CLST         368          1.0000000000
      1105       369  TIP3  OH2         -11.6022553007       -1.7782926116       -6.4989046375  CLST         369          1.0000000000
      1106       369  TIP3  H1          -10.8388042500       -2.3887998366       -6.4212127778  CLST         369          1.0000000000
      1107       369  TIP3  H2          -11.8543664971       -2.1383487697       -7.4108754581  CLST         369          1.0000000000
      1108       370  TIP3  OH2         -12.1250595481        5.4697791435      -11.4411321676  CLST         370          1.0000000000
      1109       370  TIP3  H1          -12.3412897543        4.8106798969      -12.2034706871  CLST         370          1.0000000000
      1110       370  TIP3  H2          -12.8145510921        5.6763243690      -11.0033242350  CLST         370          1.0000000000
      1111       371  TIP3  OH2           2.1622522158        7.8728316714        5.8147059726  CLST         371          1.0000000000
      1112       371  TIP3  H1            2.1654643592        7.7152914231        6.7869586443  CLST         371          1.0000000000
      1113       371  TIP3  H2            3.0902208498        7.8530077789        5.6015310434  CLST         371          1.0000000000
      1114       372  TIP3  OH2           8.1097274099       -7.5347157356        9.2515152603  CLST         372          1.0000000000
      1115       372  TIP3  H1            8.8772600335       -7.3701674102        8.6960826812  CLST         372          1.0000000000
      1116       372  TIP3  H2            8.6961828210       -7.6801446499       10.0566036686  CLST         372          1.0000000000
      1117       373  TIP3  OH2          11.0884262262       -0.3852631993        6.4560114884  CLST         373          1.0000000000
      1118       373  TIP3  H1           11.4604347806        0.4124319289        6.0682575120  CLST         373          1.0000000000
      1119       373  TIP3  H2           10.2024694670       -0.1943630368        6.1125533104  CLST         373          1.0000000000
      1120       374  TIP3  OH2          -9.3085676040        4.8518565479      -12.2774430230  CLST         374          1.0000000000
      1121       374  TIP3  H1           -9.4005231364        5.7411914415      -12.5323975777  CLST         374          1.0000000000
      1122       374  TIP3  H2          -10.0874013668        4.8725867701      -11.7013039217  CLST         374          1.0000000000
      1123       375  TIP3  OH2           9.7493154623       -5.4999460081       -2.8121547460  CLST         375          1.0000000000
      1124       375  TIP3  H1           10.2102503091       -5.0576665890       -3.5432311177  CLST         375          1.0000000000
      1125       375  TIP3  H2           10.2945552102       -6.2974776190       -2.6655565341  CLST         375          1.0000000000
      1126       376  TIP3  OH2          -2.2073136568      -11.1724917003       11.9651225184  CLST         376          1.0000000000
      1127       376  TIP3  H1           -2.7922888448      -10.9455919316       12.7391591421  CLST         376          1.0000000000
      1128       376  TIP3  H2           -2.9130032212      -11.4972006515       11.3628904130  CLST         376          1.0000000000
      1129       377  TIP3  OH2         -10.1360632185       12.6874858236       10.4227925490  CLST         377          1.0000000000
      1130       377  TIP3  H1           -9.2026271544       12.4825796684       10.7880022240  CLST         377          1.0000000000
      1131       377  TIP3  H2           -9.9364065433       13.0658752817        9.5158006612  CLST         377          1.0000000000
      1132       378  TIP3  OH2           2.2089390259       -8.2043666688        7.3228012149  CLST         378          1.0000000000
      1133       378  TIP3  H1            2.2544812169       -7.2298403406        7.3301892481  CLST         378          1.0000000000
      1134       378  TIP3  H2            1.6206848453       -8.4578222315        8.0119880139  CLST         378          1.0000000000
      1135       379  TIP3  OH2          -9.4810034962        9.3552844014       -1.1452643005  CLST         379          1.0000000000
      1136       379  TIP3  H1           -8.8870640021        9.6129780878       -0.4232842259  CLST         379          1.0000000000
      1137       379  TIP3  H2           -9.9552765964       10.1764028587       -1.4154764178  CLST         379          1.0000000000
      1138       380  TIP3  OH2           2.9815663681       -4.2288010577      -11.3759585490  CLST         380          1.0000000000
      1139       380  TIP3  H1            2.4448520314       -3.5467276905      -11.9083885449  CLST         380          1.0000000000
      1140       380  TIP3  H2            3.2076472690       -4.8281097862      -12.1283479950  CLST         380          1.0000000000
      1141       381  TIP3  OH2          10.0232514209        4.3180038850        3.4445208737  CLST         381          1.0000000000
      1142       381  TIP3  H1            9.2070846513        4.7731092778        3.7623858115  CLST         381          1.0000000000
      1143       381  TIP3  H2           10.6423550392        5.0329358443        3.8189464193  CLST         381          1.0000000000
      1144       382  TIP3  OH2           1.9107205713       -5.2936448393        5.7386832475  CLST         382          1.0000000000
      1145       382  TIP3  H1            2.2795617426       -5.0136014322        6.6038949357  CLST         382          1.0000000000
      1146       382  TIP3  H2            2.6581660179       -5.8988100248        5.4910405670  CLST         382          1.0000000000
      1147       383  TIP3  OH2          10.2766820297        8.9486858082        4.8187084445  CLST         383          1.0000000000
      1148       383  TIP3  H1            9.4628678597        9.2738341634        4.3364506144  CLST         383          1.0000000000
      1149       383  TIP3  H2           10.5458294443        9.8451716328        5.0688525345  CLST         383          1.0000000000
      1150       384  TIP3  OH2          -3.4111375095       -1.7458609543       -8.2359047367  CLST         384          1.0000000000
      1151       384  TIP3  H1           -2.9317875431       -2.6130115212       -8.2820449772  CLST         384          1.0000000000
      1152       384  TIP3  H2           -2.6684124907       -1.2908870677       -7.7749831266  CLST         384          1.0000000000
      1153       385  TIP3  OH2           3.7548674476      -11.8527859935       -0.6359537683  CLST         385          1.0000000000
      1154       385  TIP3  H1            4.6387940894      -12.5623996217       -0.8561365127  CLST         385          1.0000000000
      1155       385  TIP3  H2            4.0224033820      -11.1702233009        0.4574443708  CLST         385          1.0000000000
      1156       386  TIP3  OH2          -4.3546790771        9.2836831422       -6.0613812717  CLST         386          1.0000000000
      1157       386  TIP3  H1           -4.6751127330        8.4326487188       -6.3598955951  CLST         386          1.0000000000
      1158       386  TIP3  H2           -4.2951167399        9.6481208199       -6.9954079803  CLST         386          1.0000000000
      1159       387  TIP3  OH2          -9.8062442405       10.6023245298        2.8837855220  CLST         387          1.0000000000
      1160       387  TIP3  H1          -10.6570871106       10.4237712283        2.3461728742  CLST         387          1.0000000000
      1161       387  TIP3  H2           -9.2575257190       10.5176622879        2.0445887061  CLST         387          1.0000000000
      1162       388  TIP3  OH2          -1.7703851255      -12.2842953032        5.8539195388  CLST         388          1.0000000000
      1163       388  TIP3  H1           -2.1084880634      -11.3997284376        5.4878031692  CLST         388          1.0000000000
      1164       388  TIP3  H2           -1.8919927350      -12.1013199985        6.8163713904  CLST         388          1.0000000000
      1165       389  TIP3  OH2          -8.0830430927        3.3567930402       -3.6453386767  CLST         389          1.0000000000
      1166       389  TIP3  H1           -7.6748432172        4.1495510452       -3.2134099062  CLST         389          1.0000000000
      1167       389  TIP3  H2           -8.9729538879        3.5945486467       -3.9937627023  CLST         389          1.0000000000
      1168       390  TIP3  OH2          -5.9154640239       -3.9785441911        4.5412540661  CLST         390          1.0000000000
      1169       390  TIP3  H1           -5.3117963675       -3.1785843612        4.5273226632  CLST         390          1.0000000000
      1170       390  TIP3  H2           -5.5646343588       -4.4553829169        3.7879275730  CLST         390          1.0000000000
      1171       391  TIP3  OH2          -8.7198257275       -8.7933083621       -6.0443686820  CLST         391          1.0000000000
      1172       391  TIP3  H1           -9.3719484493       -9.3160674450       -6.5218135639  CLST         391          1.0000000000
      1173       391  TIP3  H2           -8.0485321023       -9.4664139366       -5.8054431506  CLST         391          1.0000000000
      1174       392  TIP3  OH2           0.9682068859       -2.0527555362        9.8901184163  CLST         392          1.0000000000
      1175       392  TIP3  H1            0.4236836123       -2.7169891630       10.3981312757  CLST         392          1.0000000000
      1176       392  TIP3  H2            0.2547349678       -1.3776617096        9.7540419199  CLST         392          1.0000000000
      1177       393  TIP3  OH2          10.8722599592      -12.1983188522       -0.7871065924  CLST         393          1.0000000000
      1178       393  TIP3  H1           11.3713763853      -11.3033399715       -0.8405741774  CLST         393          1.0000000000
      1179       393  TIP3  H2           11.4365261630      -12.8381372848       -0.9859026321  CLST         393          1.0000000000
      1180       394  TIP3  OH2           0.6786073381       11.8620877466       -8.6347291258  CLST         394          1.0000000000
      1181       394  TIP3  H1            1.4947887449       12.1510415178       -8.1242128415  CLST         394          1.0000000000
      1182       394  TIP3  H2            0.7110094852       10.9468106184       -8.2258802554  CLST         394          1.0000000000
      1183       395  TIP3  OH2           6.9567277363        7.5149678418       -4.5036042618  CLST         395          1.0000000000
      1184       395  TIP3  H1            6.0370023531        7.9850012757       -4.5471894524  CLST         395          1.0000000000
      1185       395  TIP3  H2            6.9023307000        7.2375128537       -5.5216146861  CLST         395          1.0000000000
      1186       396  TIP3  OH2          -1.1007270742      -10.0780852833       -9.0179900326  CLST         396          1.0000000000
      1187       396  TIP3  H1           -1.2189241043       -9.8817671374       -8.0134621563  CLST         396          1.0000000000
      1188       396  TIP3  H2           -0.2357592338       -9.5613783008       -9.1746931691  CLST         396          1.0000000000
      1189       397  TIP3  OH2          11.2946979210        7.2160750016       -9.0081279407  CLST         397          1.0000000000
      1190       397  TIP3  H1           11.8310219456        6.7054852250       -8.4430410470  CLST         397          1.0000000000
      1191       397  TIP3  H2           10.4619318605        7.2219484332       -8.4330465440  CLST         397          1.0000000000
      1192       398  TIP3  OH2          10.7327951298        7.7235095335       -4.8668915721  CLST         398          1.0000000000
      1193       398  TIP3  H1           10.0992673096        7.9588128058       -4.1367831571  CLST         398          1.0000000000
      1194       398  TIP3  H2           11.3176821633        7.1314818800       -4.3126364584  CLST         398          1.0000000000
      1195       399  TIP3  OH2           1.8053993185       11.2270265324        4.8048311684  CLST         399          1.0000000000
      1196       399  TIP3  H1            1.2600076963       10.5343595008        5.1738699175  CLST         399          1.0000000000
      1197       399  TIP3  H2            2.2303527389       11.4093943820        5.6734789511  CLST         399          1.0000000000
      1198       400  TIP3  OH2           4.0377088126       -2.9654310049       -5.1927043803  CLST         400          1.0000000000
      1199       400  TIP3  H1            4.7856081098       -2.8329267231       -4.6148219372  CLST         400          1.0000000000
      1200       400  TIP3  H2            4.3862702694       -3.6395434876       -5.8882237907  CLST         400          1.0000000000
      1201       401  TIP3  OH2         -14.6286817526       10.0925547799        5.4813520177  CLST         401          1.0000000000
      1202       401  TIP3  H1          -14.0727891967       10.3340836242        6.2870931990  CLST         401          1.0000000000
      1203       401  TIP3  H2          -15.4952670835        9.9070616729        5.9090125298  CLST         401          1.0000000000
      1204       402  TIP3  OH2           1.8546362512       -1.5799598260       12.6733358626  CLST         402          1.0000000000
      1205       402  TIP3  H1            1.6573517381       -2.5633482751       12.7068716285  CLST         402          1.0000000000
      1206       402  TIP3  H2            1.8465465873       -1.5105180005       11.6943333342  CLST         402          1.0000000000
      1207       403  TIP3  OH2          -2.0274698567       -7.1639465188       -0.6720442103  CLST         403          1.0000000000
      1208       403  TIP3  H1           -1.6983796019       -6.6330060280       -1.3615835162  CLST         403          1.0000000000
      1209       403  TIP3  H2           -1.9814599238       -8.0456878989       -1.1984371846  CLST         403          1.0000000000
      1210       404  TIP3  OH2          -4.8641911149       -2.4696781640        9.1580406675  CLST         404          1.0000000000
      1211       404  TIP3  H1           -5.2455254804       -2.6486628437       10.0258395283  CLST         404          1.0000000000
      1212       404  TIP3  H2           -5.1667095572       -3.3186328352        8.6906574150  CLST         404          1.0000000000
      1213       405  TIP3  OH2         -12.0097037518        7.3319493474       11.3734752840  CLST         405          1.0000000000
      1214       405  TIP3  H1          -11.8590141913        6.4595261309       10.9823504098  CLST         405          1.0000000000
      1215       405  TIP3  H2          -12.9099996535        7.0668250486       11.6161361166  CLST         405          1.0000000000
      1216       406  TIP3  OH2           1.0518409301        7.6946517632      -12.0709593018  CLST         406          1.0000000000
      1217       406  TIP3  H1            1.2526954814        8.6597442918      -12.2465827684  CLST         406          1.0000000000
      1218       406  TIP3  H2            1.5783138948        7.5489624948      -11.2347661725  CLST         406          1.0000000000
      1219       407  TIP3  OH2          10.3968235525      -13.2614376831        4.9852789540  CLST         407          1.0000000000
      1220       407  TIP3  H1           10.5574190227      -13.2281542261        4.0524615632  CLST         407          1.0000000000
      1221       407  TIP3  H2           11.0802751379      -12.5920726937        5.2070141765  CLST         407          1.0000000000
      1222       408  TIP3  OH2          -2.9826466083      -11.5794598787        2.0166135914  CLST         408          1.0000000000
      1223       408  TIP3  H1           -2.1849521370      -10.9842167234        1.8519323099  CLST         408          1.0000000000
      1224       408  TIP3  H2           -2.4359778951      -12.4101418025        2.1045854282  CLST         408          1.0000000000
      1225       409  TIP3  OH2           1.1118435810       -9.5640329658        9.6698977515  CLST         409          1.0000000000
      1226       409  TIP3  H1            0.5999582462       -9.5071947558       10.4995320827  CLST         409          1.0000000000
      1227       409  TIP3  H2            1.5352522428      -10.4370332393        9.8233676597  CLST         409          1.0000000000
      1228       410  TIP3  OH2           9.8876250362       -7.0449591183       -5.2689707000  CLST         410          1.0000000000
      1229       410  TIP3  H1            9.0779518950       -6.6757303094       -5.7494178755  CLST         410          1.0000000000
      1230       410  TIP3  H2           10.4116665652       -6.1956098660       -5.4792650478  CLST         410          1.0000000000
      1231       411  TIP3  OH2          -9.9303807542       -2.3794112487       -1.2815210273  CLST         411          1.0000000000
      1232       411  TIP3  H1           -9.2042667084       -1.8930254891       -1.1323694670  CLST         411          1.0000000000
      1233       411  TIP3  H2           -9.5984625949       -2.7982578014       -2.1406411288  CLST         411          1.0000000000
      1234       412  TIP3  OH2           6.8388433315      -10.5292799227      -12.0572118065  CLST         412          1.0000000000
      1235       412  TIP3  H1            6.1676049144      -10.8955237434      -11.4524687592  CLST         412          1.0000000000
      1236       412  TIP3  H2            7.5912220967      -11.1460521523      -11.8432606792  CLST         412          1.0000000000
      1237       413  TIP3  OH2           6.8961588530       13.1583873476        0.1525010813  CLST         413          1.0000000000
      1238       413  TIP3  H1            7.5773451918       12.7649124970       -0.4474251191  CLST         413          1.0000000000
      1239       413  TIP3  H2            7.5093293030       13.6806407221        0.7698997997  CLST         413          1.0000000000
      1240       414  TIP3  OH2           1.4714235264       -2.4019289692      -12.3623638055  CLST         414          1.0000000000
      1241       414  TIP3  H1            0.5797705259       -1.9697641539      -12.1704223905  CLST         414          1.0000000000
      1242       414  TIP3  H2            1.4091200025       -2.4089464085      -13.3229910354  CLST         414          1.0000000000
      1243       415  TIP3  OH2           4.0415067519        5.2729641782       -8.2319362846  CLST         415          1.0000000000
      1244       415  TIP3  H1            3.3666365797        4.2909233446       -8.0540884392  CLST         415          1.0000000000
      1245       415  TIP3  H2            4.6058637666        4.7165163001       -8.9113875455  CLST         415          1.0000000000
      1246       416  TIP3  OH2           5.6708966227       12.4100183783       -7.8893536398  CLST         416          1.0000000000
      1247       416  TIP3  H1            5.5560712360       13.1725480708       -8.3255393617  CLST         416          1.0000000000
      1248       416  TIP3  H2            6.5947851183       12.2293346345       -8.2369443955  CLST         416          1.0000000000
      1249       417  TIP3  OH2          12.7729394019      -11.3681137116        2.7317611864  CLST         417          1.0000000000
      1250       417  TIP3  H1           12.0008189898      -11.8482798512        2.3852353552  CLST         417          1.0000000000
      1251       417  TIP3  H2           12.6248820065      -10.5739234692        2.1468815600  CLST         417          1.0000000000
      1252       418  TIP3  OH2          -9.1372923424       -1.6386951893        8.2351906029  CLST         418          1.0000000000
      1253       418  TIP3  H1           -8.6818491994       -1.1202209726        7.5328212218  CLST         418          1.0000000000
      1254       418  TIP3  H2           -9.1612842884       -0.8837099520        8.8566650707  CLST         418          1.0000000000
      1255       419  TIP3  OH2          13.9488115069        0.4625836446       -6.2192470756  CLST         419          1.0000000000
      1256       419  TIP3  H1           14.1795877143        1.0881616055       -5.0673819468  CLST         419          1.0000000000
      1257       419  TIP3  H2           15.4813760686        0.7921032264       -6.3972295567  CLST         419          1.0000000000
      1258       420  TIP3  OH2          -8.2467296210       -8.3024712474        3.5284374120  CLST         420          1.0000000000
      1259       420  TIP3  H1           -9.0370755398       -8.1545583924        2.9445543238  CLST         420          1.0000000000
      1260       420  TIP3  H2           -8.4008861766       -9.2290292569        3.7895154520  CLST         420          1.0000000000
      1261       421  TIP3  OH2           3.4216680590       -6.2487554644      -13.4023876155  CLST         421          1.0000000000
      1262       421  TIP3  H1            4.3108776856       -6.7077947862      -13.3026263547  CLST         421          1.0000000000
      1263       421  TIP3  H2            2.9169958385       -7.1520714558      -13.3837701695  CLST         421          1.0000000000
      1264       422  TIP3  OH2          -1.9872680295       -9.4400563644       -1.7760218899  CLST         422          1.0000000000
      1265       422  TIP3  H1           -1.2517253491      -10.0405858269       -1.8861545485  CLST         422          1.0000000000
      1266       422  TIP3  H2           -2.6790165669      -10.1653151514       -1.6903231151  CLST         422          1.0000000000
      1267       423  TIP3  OH2           1.6855650135        4.7645798372       -3.9966748100  CLST         423          1.0000000000
      1268       423  TIP3  H1            2.4566335574        5.2456270770       -4.4307476492  CLST         423          1.0000000000
      1269       423  TIP3  H2            2.0594728148        4.6895488562       -3.0921544657  CLST         423          1.0000000000
      1270       424  TIP3  OH2          -9.1065307725        4.4166324337        4.3431942444  CLST         424          1.0000000000
      1271       424  TIP3  H1           -9.0343164373        3.9149770776        3.4884620333  CLST         424          1.0000000000
      1272       424  TIP3  H2           -8.2894186784        4.9670158522        4.4051442956  CLST         424          1.0000000000
      1273       425  TIP3  OH2           8.1632003990      -12.7568763882        8.2583793432  CLST         425          1.0000000000
      1274       425  TIP3  H1            8.1003986485      -12.1894687139        7.4196916078  CLST         425          1.0000000000
      1275       425  TIP3  H2            7.7552506630      -12.0417757173        8.7636253488  CLST         425          1.0000000000
      1276       426  TIP3  OH2           8.2938357096        2.1982020563        8.2021665091  CLST         426          1.0000000000
      1277       426  TIP3  H1            8.9574928907        2.2379612192        8.8906455529  CLST         426          1.0000000000
      1278       426  TIP3  H2            8.4003972384        3.1136167836        7.8476824808  CLST         426          1.0000000000
      1279       427  TIP3  OH2          11.3731599916        7.6197306660       10.8532444934  CLST         427          1.0000000000
      1280       427  TIP3  H1           11.3936745042        8.1570240126       11.6580749761  CLST         427          1.0000000000
      1281       427  TIP3  H2           10.6079054759        7.0186205346       10.9445555881  CLST         427          1.0000000000
      1282       428  TIP3  OH2          12.4728645120        7.6699589073        1.1309696014  CLST         428          1.0000000000
      1283       428  TIP3  H1           12.3207697866        7.9875732068        0.1850746277  CLST         428          1.0000000000
      1284       428  TIP3  H2           13.3863249506        7.3987272036        1.1879191959  CLST         428          1.0000000000
      1285       429  TIP3  OH2          11.8115631447       -9.8704739800       -0.7803975050  CLST         429          1.0000000000
      1286       429  TIP3  H1           12.1754098510       -9.3223503074       -0.0195797937  CLST         429          1.0000000000
      1287       429  TIP3  H2           11.3930638461       -9.1943992372       -1.3524018717  CLST         429          1.0000000000
      1288       430  TIP3  OH2           9.7740819755       -6.6971522923        3.6233837827  CLST         430          1.0000000000
      1289       430  TIP3  H1            9.6624818777       -7.2285657901        2.7876450635  CLST         430          1.0000000000
      1290       430  TIP3  H2           10.7878577841       -6.6673684460        3.5444901207  CLST         430          1.0000000000
      1291       431  TIP3  OH2         -12.7209636452        9.4194225320       -2.2010017794  CLST         431          1.0000000000
      1292       431  TIP3  H1          -13.5249912135        9.7912937514       -2.4555165044  CLST         431          1.0000000000
      1293       431  TIP3  H2          -12.9396699202        8.9716365948       -1.3983945666  CLST         431          1.0000000000
      1294       432  TIP3  OH2           5.3757814359        8.2960639835      -10.1396151844  CLST         432          1.0000000000
      1295       432  TIP3  H1            5.6906894166        8.3254186001       -9.2199564661  CLST         432          1.0000000000
      1296       432  TIP3  H2            4.8011961626        9.0767090177      -10.0507579468  CLST         432          1.0000000000
      1297       433  TIP3  OH2          -0.6831235822        8.2233948218        7.8034817702  CLST         433          1.0000000000
      1298       433  TIP3  H1           -1.5357256967        8.5797928133        8.1082796805  CLST         433          1.0000000000
      1299       433  TIP3  H2           -0.9465043808        7.4983653548        7.2020722592  CLST         433          1.0000000000
      1300       434  TIP3  OH2          -7.2715011218        0.6375755607        3.6405753185  CLST         434          1.0000000000
      1301       434  TIP3  H1           -7.7059102061        1.3737473886        3.0978335749  CLST         434          1.0000000000
      1302       434  TIP3  H2           -7.9576552722       -0.0713149120        3.5007932420  CLST         434          1.0000000000
      1303       435  TIP3  OH2           9.9483754809       -0.3328983817       -7.0978148480  CLST         435          1.0000000000
      1304       435  TIP3  H1            9.7665792311       -0.2799650859       -6.1439496613  CLST         435          1.0000000000
      1305       435  TIP3  H2           10.2172603267        0.5093481373       -7.5470790765  CLST         435          1.0000000000
      1306       436  TIP3  OH2           3.6919421305       10.4277640838       -8.8881357620  CLST         436          1.0000000000
      1307       436  TIP3  H1            4.0995408023       11.2192165769       -8.5347129426  CLST         436          1.0000000000
      1308       436  TIP3  H2            2.8476511002       10.3263537524       -8.4318486003  CLST         436          1.0000000000
      1309       437  TIP3  OH2          -8.4463203134       -0.9072693985       -7.9905498388  CLST         437          1.0000000000
      1310       437  TIP3  H1           -8.6860635968       -0.4064740708       -8.7850101563  CLST         437          1.0000000000
      1311       437  TIP3  H2           -7.4564711790       -0.7363905317       -8.0302870470  CLST         437          1.0000000000
      1312       438  TIP3  OH2          -3.2681122853        5.5254666309       -8.0256214063  CLST         438          1.0000000000
      1313       438  TIP3  H1           -4.0272004746        6.1711959496       -7.7143461215  CLST         438          1.0000000000
      1314       438  TIP3  H2           -3.6844392419        5.4844431664       -8.9342478778  CLST         438          1.0000000000
      1315       439  TIP3  OH2          14.2224167032        1.6270626640       -3.8830354095  CLST         439          1.0000000000
      1316       439  TIP3  H1           13.6223642417        2.5332711878       -3.8929610653  CLST         439          1.0000000000
      1317       439  TIP3  H2           13.7346193982        1.1870809012       -3.0297295856  CLST         439          1.0000000000
      1318       440  TIP3  OH2           1.2313010773      -13.0179275735      -11.2070310445  CLST         440          1.0000000000
      1319       440  TIP3  H1            0.2579217716      -12.7512804466      -11.2044796186  CLST         440          1.0000000000
      1320       440  TIP3  H2            1.3784732443      -13.6162535868      -11.8409874089  CLST         440          1.0000000000
      1321       441  TIP3  OH2          -1.6402372280       -4.1526154227        3.0736116805  CLST         441          1.0000000000
      1322       441  TIP3  H1           -1.5278838888       -3.2656801279        3.1168904326  CLST         441          1.0000000000
      1323       441  TIP3  H2           -1.3805774411       -4.5734809504        3.9341850519  CLST         441          1.0000000000
      1324       442  TIP3  OH2           3.1921944173       -9.7877795560       -7.9622154684  CLST         442          1.0000000000
      1325       442  TIP3  H1            3.5568418915      -10.3896276872       -8.6295948173  CLST         442          1.0000000000
      1326       442  TIP3  H2            2.4131918224       -9.4131074090       -8.4222419626  CLST         442          1.0000000000
      1327       443  TIP3  OH2           1.3171279268       10.4717623440      -12.9479115081  CLST         443          1.0000000000
      1328       443  TIP3  H1            1.4779782655       11.1560579794      -12.2060051587  CLST         443          1.0000000000
      1329       443  TIP3  H2            1.9134497195       10.8321950729      -13.6037953713  CLST         443          1.0000000000
      1330       444  TIP3  OH2          -7.8260471841        1.3464836103       -1.9839062951  CLST         444          1.0000000000
      1331       444  TIP3  H1           -7.9367845662        2.0313023993       -2.7474957950  CLST         444          1.0000000000
      1332       444  TIP3  H2           -7.3673150505        1.9725475983       -1.3441605744  CLST         444          1.0000000000
      1333       445  TIP3  OH2         -11.4813896880       -5.2181603993        6.1700292327  CLST         445          1.0000000000
      1334       445  TIP3  H1          -11.2132465925       -4.2913967971        5.8337859065  CLST         445          1.0000000000
      1335       445  TIP3  H2          -11.5323048810       -4.9265683825        7.0993659754  CLST         445          1.0000000000
      1336       446  TIP3  OH2          -2.7525361465        4.6242325778       -5.2803247761  CLST         446          1.0000000000
      1337       446  TIP3  H1           -3.2325618255        4.9459074594       -6.0617592356  CLST         446          1.0000000000
      1338       446  TIP3  H2           -1.9134873487        5.1722356389       -5.4121375685  CLST         446          1.0000000000
      1339       447  TIP3  OH2          -4.9674914479      -12.8024931647       -3.8802140529  CLST         447          1.0000000000
      1340       447  TIP3  H1           -5.4384254592      -13.4171568889       -3.3656855397  CLST         447          1.0000000000
      1341       447  TIP3  H2           -4.5846104982      -12.1748939574       -3.2235903990  CLST         447          1.0000000000
      1342       448  TIP3  OH2           7.3361188112        9.6511446477        4.7765075079  CLST         448          1.0000000000
      1343       448  TIP3  H1            7.5974231655        9.7440967602        5.7398173128  CLST         448          1.0000000000
      1344       448  TIP3  H2            6.5162261606       10.2125185527        4.8399500275  CLST         448          1.0000000000
      1345       449  TIP3  OH2           4.2467567092        5.1834222095        8.5195456116  CLST         449          1.0000000000
      1346       449  TIP3  H1            5.0031090141        4.7170454943        8.9921410812  CLST         449          1.0000000000
      1347       449  TIP3  H2            3.9457647705        4.4907919936        7.9073888920  CLST         449          1.0000000000
      1348       450  TIP3  OH2          -4.0866122003        0.3430575948       -2.0606932295  CLST         450          1.0000000000
      1349       450  TIP3  H1           -3.4620447286        0.9106636806       -2.5251565665  CLST         450          1.0000000000
      1350       450  TIP3  H2           -3.4355822981       -0.2955004084       -1.6605339228  CLST         450          1.0000000000
      1351       451  TIP3  OH2          13.7317007547       -1.9872823072       -5.6205220989  CLST         451          1.0000000000
      1352       451  TIP3  H1           15.1118289523       -1.7618524830       -5.8507957786  CLST         451          1.0000000000
      1353       451  TIP3  H2           14.3229504654       -0.5918282769       -6.4995648193  CLST         451          1.0000000000
      1354       452  TIP3  OH2           8.4518984428        4.8798785374        8.0320770453  CLST         452          1.0000000000
      1355       452  TIP3  H1            7.6258569904        5.4069550595        7.9469035797  CLST         452          1.0000000000
      1356       452  TIP3  H2            9.0842560375        5.5432947222        7.6223588306  CLST         452          1.0000000000
      1357       453  TIP3  OH2           7.1184306123        2.7783575558       -6.0451053544  CLST         453          1.0000000000
      1358       453  TIP3  H1            6.2907795865        2.8226247791       -5.4884544669  CLST         453          1.0000000000
      1359       453  TIP3  H2            6.6189204550        2.6047444503       -6.8796093190  CLST         453          1.0000000000
      1360       454  TIP3  OH2           1.1550097464        5.4226425768        2.0575043847  CLST         454          1.0000000000
      1361       454  TIP3  H1            0.3680112887        4.9798039817        1.6565749194  CLST         454          1.0000000000
      1362       454  TIP3  H2            0.7713597998        6.0788120716        2.7064340330  CLST         454          1.0000000000
      1363       455  TIP3  OH2          -1.1142294553        0.8210744904      -10.3219259358  CLST         455          1.0000000000
      1364       455  TIP3  H1           -1.2357418637        1.0484913211       -9.3863664344  CLST         455          1.0000000000
      1365       455  TIP3  H2           -0.8714281504        1.7130672440      -10.6811497620  CLST         455          1.0000000000
      1366       456  TIP3  OH2           5.3144511092       11.4070832319        5.2235726162  CLST         456          1.0000000000
      1367       456  TIP3  H1            4.7328985110       11.8325883160        4.5530322751  CLST         456          1.0000000000
      1368       456  TIP3  H2            4.6484867176       11.0432732788        5.8748753791  CLST         456          1.0000000000
      1369       457  TIP3  OH2          -4.7719338572       -7.6722060452        4.8330675762  CLST         457          1.0000000000
      1370       457  TIP3  H1           -5.5251334186       -7.5864037771        5.4262448645  CLST         457          1.0000000000
      1371       457  TIP3  H2           -5.1728568795       -7.3810624930        3.9698534812  CLST         457          1.0000000000
      1372       458  TIP3  OH2           7.9974082911       -6.4097245631      -11.3271645595  CLST         458          1.0000000000
      1373       458  TIP3  H1            9.0021414124       -6.2499372547      -11.4538238538  CLST         458          1.0000000000
      1374       458  TIP3  H2            7.8239777292       -5.5723717219      -10.9055000472  CLST         458          1.0000000000
      1375       459  TIP3  OH2           6.4282854700       -9.7889047859       -8.0167653035  CLST         459          1.0000000000
      1376       459  TIP3  H1            6.0081130527       -8.8743490953       -7.9037925721  CLST         459          1.0000000000
      1377       459  TIP3  H2            7.3181421874       -9.5617396420       -8.4112576322  CLST         459          1.0000000000
      1378       460  TIP3  OH2           9.2024342358       -2.2238551438       -2.7852022846  CLST         460          1.0000000000
      1379       460  TIP3  H1            9.7738525428       -2.2243918850       -1.9790773579  CLST         460          1.0000000000
      1380       460  TIP3  H2            9.9348442986       -2.0714366300       -3.4342126366  CLST         460          1.0000000000
      1381       461  TIP3  OH2          -1.2143786735      -12.7630527634       -5.4194827317  CLST         461          1.0000000000
      1382       461  TIP3  H1           -0.5926949541      -13.2276279440       -6.0977406678  CLST         461          1.0000000000
      1383       461  TIP3  H2           -0.8545395615      -13.1454084664       -4.5424477175  CLST         461          1.0000000000
      1384       462  TIP3  OH2          -0.0734819642        5.5099534524      -12.7304918170  CLST         462          1.0000000000
      1385       462  TIP3  H1            0.3355055493        6.4421329742      -12.4845885086  CLST         462          1.0000000000
      1386       462  TIP3  H2            0.5694042880        5.3044320850      -13.3977342673  CLST         462          1.0000000000
      1387       463  TIP3  OH2          -1.7235123838        1.8175383670       -7.7553823002  CLST         463          1.0000000000
      1388       463  TIP3  H1           -1.4562503587        1.0309700481       -7.2327447754  CLST         463          1.0000000000
      1389       463  TIP3  H2           -2.6860642188        1.8218446064       -7.5611621375  CLST         463          1.0000000000
      1390       464  TIP3  OH2          -6.6663076269        6.1998351067        4.4473741316  CLST         464          1.0000000000
      1391       464  TIP3  H1           -5.8932458938        5.6963437223        4.8965329806  CLST         464          1.0000000000
      1392       464  TIP3  H2           -6.8731375182        7.0339995556        5.1658746279  CLST         464          1.0000000000
      1393       465  TIP3  OH2          -4.6134873739      -12.4722875448        6.3192651017  CLST         465          1.0000000000
      1394       465  TIP3  H1           -3.7514862586      -12.9371479937        6.0346442170  CLST         465          1.0000000000
      1395       465  TIP3  H2           -4.2879288393      -11.5639257272        6.1220328152  CLST         465          1.0000000000
      1396       466  TIP3  OH2          -2.3116698081        9.2187481343       -4.2780479324  CLST         466          1.0000000000
      1397       466  TIP3  H1           -3.0736116417        9.2605531374       -4.9462005211  CLST         466          1.0000000000
      1398       466  TIP3  H2           -2.5965614390        9.8955406745       -3.6006950026  CLST         466          1.0000000000
      1399       467  TIP3  OH2           8.4052665751        5.8972637346        4.7449653992  CLST         467          1.0000000000
      1400       467  TIP3  H1            8.9387798721        6.3168965950        5.4512374260  CLST         467          1.0000000000
      1401       467  TIP3  H2            8.3253933838        6.6556670201        4.1328221872  CLST         467          1.0000000000
      1402       468  TIP3  OH2          -0.6260298182      -12.3641209501       10.3995707280  CLST         468          1.0000000000
      1403       468  TIP3  H1           -1.0897838028      -12.0638375595       11.2006251939  CLST         468          1.0000000000
      1404       468  TIP3  H2            0.2861267093      -12.4180783842       10.6816322231  CLST         468          1.0000000000
      1405       469  TIP3  OH2           5.4577762945        8.4237368529       14.1856059770  CLST         469          1.0000000000
      1406       469  TIP3  H1            6.1165215219        8.6307641886       13.5253278792  CLST         469          1.0000000000
      1407       469  TIP3  H2            4.8017830365        9.1127146745       13.9239512946  CLST         469          1.0000000000
      1408       470  TIP3  OH2         -11.1910544187       12.7434324762        0.5971072379  CLST         470          1.0000000000
      1409       470  TIP3  H1          -10.9057242451       12.3396377795       -0.2939862425  CLST         470          1.0000000000
      1410       470  TIP3  H2          -11.7352078275       11.9505698601        0.8374688718  CLST         470          1.0000000000
      1411       471  TIP3  OH2          -4.4309603077        9.6710869512       -9.0079110086  CLST         471          1.0000000000
      1412       471  TIP3  H1           -4.1321669237        8.8056806405       -9.3568490846  CLST         471          1.0000000000
      1413       471  TIP3  H2           -4.7358345272       10.0061844996       -9.9051727896  CLST         471          1.0000000000
      1414       472  TIP3  OH2         -11.9105508371        3.9623091205        2.8762497698  CLST         472          1.0000000000
      1415       472  TIP3  H1          -12.3796344585        3.1257079708        3.1946659523  CLST         472          1.0000000000
      1416       472  TIP3  H2          -11.5346067395        3.5265015116        2.0203581918  CLST         472          1.0000000000
      1417       473  TIP3  OH2           5.4362279454        0.7227509899       10.1588122205  CLST         473          1.0000000000
      1418       473  TIP3  H1            6.1210017752        1.3663377432       10.3612181034  CLST         473          1.0000000000
      1419       473  TIP3  H2            4.7380418979        1.3305990567        9.7805800048  CLST         473          1.0000000000
      1420       474  TIP3  OH2           1.2630321266        1.7499329453        1.4983115229  CLST         474          1.0000000000
      1421       474  TIP3  H1            0.3077186664        1.6016544403        1.3884507301  CLST         474          1.0000000000
      1422       474  TIP3  H2            1.5463166022        1.0905736387        0.8130881126  CLST         474          1.0000000000
      1423       475  TIP3  OH2           6.1647324818       -8.6308036650       12.0340016394  CLST         475          1.0000000000
      1424       475  TIP3  H1            7.1184786126       -8.5532485530       12.2529736929  CLST         475          1.0000000000
      1425       475  TIP3  H2            6.0376849138       -8.9281055058       11.1126409547  CLST         475          1.0000000000
      1426       476  TIP3  OH2         -11.4737206008       -8.9138998390       -0.2152773362  CLST         476          1.0000000000
      1427       476  TIP3  H1          -11.8629986662       -8.0755021030       -0.6543532988  CLST         476          1.0000000000
      1428       476  TIP3  H2          -10.8884963427       -9.0829100372       -0.9538889485  CLST         476          1.0000000000
      1429       477  TIP3  OH2         -12.5521872500        3.7415741399      -13.6010312588  CLST         477          1.0000000000
      1430       477  TIP3  H1          -12.8337078002        2.8452586614      -13.5989428138  CLST         477          1.0000000000
      1431       477  TIP3  H2          -11.7988518792        3.6214083335      -14.1259883866  CLST         477          1.0000000000
      1432       478  TIP3  OH2          -3.8473067673        6.5910390236      -10.6777155957  CLST         478          1.0000000000
      1433       478  TIP3  H1           -4.3530857920        6.2686778469      -11.4766540421  CLST         478          1.0000000000
      1434       478  TIP3  H2           -3.2521188523        7.2134802287      -11.2634296287  CLST         478          1.0000000000
      1435       479  TIP3  OH2           7.8313134820       -1.4925909813       -8.4272561606  CLST         479          1.0000000000
      1436       479  TIP3  H1            8.6265489592       -0.9658131235       -8.1393072172  CLST         479          1.0000000000
      1437       479  TIP3  H2            7.2557422430       -1.3728560622       -7.6520948084  CLST         479          1.0000000000
      1438       480  TIP3  OH2          -6.1575953896        7.4961156371       -0.1439474060  CLST         480          1.0000000000
      1439       480  TIP3  H1           -5.2160661866        7.8546190467       -0.2743526479  CLST         480          1.0000000000
      1440       480  TIP3  H2           -5.8463469214        6.5628854375       -0.0476572312  CLST         480          1.0000000000
      1441       481  TIP3  OH2          -3.0175570807        2.3853513124       11.9861052819  CLST         481          1.0000000000
      1442       481  TIP3  H1           -2.0678906322        2.4948651268       11.7209679619  CLST         481          1.0000000000
      1443       481  TIP3  H2           -2.8048859601        1.4743464574       12.2674893190  CLST         481          1.0000000000
      1444       482  TIP3  OH2          -7.8356065637       11.6552310337       -7.6345284548  CLST         482          1.0000000000
      1445       482  TIP3  H1           -8.6068159078       11.6403179784       -8.2351813916  CLST         482          1.0000000000
      1446       482  TIP3  H2           -7.1504760862       12.0227734812       -8.2668891471  CLST         482          1.0000000000
      1447       483  TIP3  OH2           6.2580619873       -5.9026641072       12.7495689293  CLST         483          1.0000000000
      1448       483  TIP3  H1            5.6494812243       -6.6082769710       12.6393265997  CLST         483          1.0000000000
      1449       483  TIP3  H2            6.3003064812       -5.5511557414       11.8230332167  CLST         483          1.0000000000
      1450       484  TIP3  OH2           6.6601977632       -3.1050884605        3.0387911383  CLST         484          1.0000000000
      1451       484  TIP3  H1            5.6581549735       -3.1288114564        2.7831375422  CLST         484          1.0000000000
      1452       484  TIP3  H2            6.5146111857       -2.5307089157        3.7924754835  CLST         484          1.0000000000
      1453       485  TIP3  OH2         -11.6786494529        4.5087901433       10.0315160439  CLST         485          1.0000000000
      1454       485  TIP3  H1          -11.3070244126        3.6258256154       10.0421008968  CLST         485          1.0000000000
      1455       485  TIP3  H2          -12.3724347196        4.3189604057        9.2830820464  CLST         485          1.0000000000
      1456       486  TIP3  OH2           8.5252788108       -7.0607800434       13.6571608430  CLST         486          1.0000000000
      1457       486  TIP3  H1            8.5144436748       -7.2625403381       14.4781200009  CLST         486          1.0000000000
      1458       486  TIP3  H2            7.7078985512       -6.5270898387       13.4504496179  CLST         486          1.0000000000
      1459       487  TIP3  OH2          12.2779176766       -8.5265114475        6.0905807765  CLST         487          1.0000000000
      1460       487  TIP3  H1           11.3262224154       -8.3498161824        6.2763563020  CLST         487          1.0000000000
      1461       487  TIP3  H2           12.5195527372       -8.5679267673        7.0615471324  CLST         487          1.0000000000
      1462       488  TIP3  OH2          14.8210393119        8.4323807166        7.7472216818  CLST         488          1.0000000000
      1463       488  TIP3  H1           15.4952670835        7.7275452841        7.7581335789  CLST         488          1.0000000000
      1464       488  TIP3  H2           14.0786312176        7.8863846381        8.1629383636  CLST         488          1.0000000000
      1465       489  TIP3  OH2          -6.1275488033      -10.7509253140       11.9069276886  CLST         489          1.0000000000
      1466       489  TIP3  H1           -6.2894734266       -9.8203848352       11.7682647966  CLST         489          1.0000000000
      1467       489  TIP3  H2           -6.9059368543      -11.1622684835       11.2925538564  CLST         489          1.0000000000
      1468       490  TIP3  OH2           6.7432958693      -13.0341843871        2.2137791035  CLST         490          1.0000000000
      1469       490  TIP3  H1            6.6131458014      -12.1247831125        2.6648267673  CLST         490          1.0000000000
      1470       490  TIP3  H2            7.0481863270      -13.6580733647        2.8743963690  CLST         490          1.0000000000
      1471       491  TIP3  OH2           3.0693798066       -9.3242733310        5.1098859570  CLST         491          1.0000000000
      1472       491  TIP3  H1            2.1217704724       -9.1219339770        5.4616180953  CLST         491          1.0000000000
      1473       491  TIP3  H2            2.8576883178       -9.6389188735        4.2463003592  CLST         491          1.0000000000
      1474       492  TIP3  OH2          -0.5221835910       -6.4284616121       12.3630411187  CLST         492          1.0000000000
      1475       492  TIP3  H1           -0.4592773930       -7.4779271061       12.1479183249  CLST         492          1.0000000000
      1476       492  TIP3  H2           -1.4616596009       -6.2535535781       12.0628122136  CLST         492          1.0000000000
      1477       493  TIP3  OH2           3.4560313206       10.7142540044        7.2631220548  CLST         493          1.0000000000
      1478       493  TIP3  H1            4.2387298383       10.7591548594        7.9666381239  CLST         493          1.0000000000
      1479       493  TIP3  H2            2.7316787901       10.2889824349        7.7743910866  CLST         493          1.0000000000
      1480       494  TIP3  OH2          -9.2714982643        5.4567241098       -0.7933579214  CLST         494          1.0000000000
      1481       494  TIP3  H1           -9.7662411178        5.7316321522       -1.5612702684  CLST         494          1.0000000000
      1482       494  TIP3  H2           -9.6429367511        5.9539430714       -0.0307936983  CLST         494          1.0000000000
      1483       495  TIP3  OH2           5.0712752748       -6.8250284393       -2.1802875141  CLST         495          1.0000000000
      1484       495  TIP3  H1            5.5262684287       -6.3533223822       -2.9171042316  CLST         495          1.0000000000
      1485       495  TIP3  H2            5.9073970110       -7.2970616385       -1.9015839504  CLST         495          1.0000000000
      1486       496  TIP3  OH2         -12.8210261143      -10.8062298240        7.5276772328  CLST         496          1.0000000000
      1487       496  TIP3  H1          -13.1824435043      -11.6010737419        7.9065235382  CLST         496          1.0000000000
      1488       496  TIP3  H2          -12.4278460286      -11.3230699607        6.7370219326  CLST         496          1.0000000000
      1489       497  TIP3  OH2          -9.6760927468      -13.3927882803       -7.2862868003  CLST         497          1.0000000000
      1490       497  TIP3  H1          -10.4101457053      -13.9674454049       -7.3762723593  CLST         497          1.0000000000
      1491       497  TIP3  H2           -9.8379862580      -12.8892816766       -8.0966615936  CLST         497          1.0000000000
      1492       498  TIP3  OH2          -5.6596316467        0.4820219971      -11.1127046744  CLST         498          1.0000000000
      1493       498  TIP3  H1           -5.8454962617        0.5354043820      -12.0688033812  CLST         498          1.0000000000
      1494       498  TIP3  H2           -5.3590428686        1.3765187904      -10.8517377346  CLST         498          1.0000000000
      1495       499  TIP3  OH2          11.5236360563        6.6418795784        3.5069659231  CLST         499          1.0000000000
      1496       499  TIP3  H1           12.2144314546        7.0479464977        2.9734765204  CLST         499          1.0000000000
      1497       499  TIP3  H2           11.0861125312        7.4619200937        3.8207734063  CLST         499          1.0000000000
      1498       500  TIP3  OH2           2.2122221390       -8.6921549091      -13.2778585772  CLST         500          1.0000000000
      1499       500  TIP3  H1            1.7888426433       -8.9103689645      -14.0275484645  CLST         500          1.0000000000
      1500       500  TIP3  H2            2.3816542744       -9.4868208051      -12.7277566214  CLST         500          1.0000000000
      1501       501  TIP3  OH2           1.2792822354      -11.0353158285       14.0591980291  CLST         501          1.0000000000
      1502       501  TIP3  H1            1.1990579040      -11.9203022772       14.0926165508  CLST         501          1.0000000000
      1503       501  TIP3  H2            2.2608304184      -10.8254412338       14.0902978689  CLST         501          1.0000000000
      1504       502  TIP3  OH2           6.1190351011        3.7825894506        9.6844730302  CLST         502          1.0000000000
      1505       502  TIP3  H1            6.4161151277        4.2165882821       10.5099196992  CLST         502          1.0000000000
      1506       502  TIP3  H2            6.9284587150        3.4232654504        9.2949316937  CLST         502          1.0000000000
      1507       503  TIP3  OH2          10.3084779169       -0.8025845075        0.2045374182  CLST         503          1.0000000000
      1508       503  TIP3  H1           11.2229639213       -0.6876604060        0.4532608793  CLST         503          1.0000000000
      1509       503  TIP3  H2           10.1691655494       -0.0829941928       -0.4022372186  CLST         503          1.0000000000
      1510       504  TIP3  OH2           8.3875475004      -13.8405626610       10.7560166391  CLST         504          1.0000000000
      1511       504  TIP3  H1            8.2743275018      -13.5539161840        9.8355978922  CLST         504          1.0000000000
      1512       504  TIP3  H2            8.1719181420      -14.7415367651       10.6507117676  CLST         504          1.0000000000
      1513       505  TIP3  OH2           3.5878893139      -10.9575018764       -5.6991186998  CLST         505          1.0000000000
      1514       505  TIP3  H1            3.3879310980      -10.3490250236       -6.4625961300  CLST         505          1.0000000000
      1515       505  TIP3  H2            3.0791050985      -10.5293219526       -4.9824858776  CLST         505          1.0000000000
      1516       506  TIP3  OH2          -9.1775172355       -3.4565668693       -8.1291903025  CLST         506          1.0000000000
      1517       506  TIP3  H1           -8.9896279896       -2.4998636700       -8.0183284282  CLST         506          1.0000000000
      1518       506  TIP3  H2           -9.7951969096       -3.3555763676       -8.9202612121  CLST         506          1.0000000000
      1519       507  TIP3  OH2          11.2270408176        9.6631137129      -12.8188070386  CLST         507          1.0000000000
      1520       507  TIP3  H1           11.4190635297        9.7288395160      -13.6682840238  CLST         507          1.0000000000
      1521       507  TIP3  H2           11.0709610513        8.4086563979      -12.3888911981  CLST         507          1.0000000000
      1522       508  TIP3  OH2           9.1935593798       12.2002465505        8.7524038218  CLST         508          1.0000000000
      1523       508  TIP3  H1            8.5605309294       12.0704224101        8.0570672831  CLST         508          1.0000000000
      1524       508  TIP3  H2            9.9941089325       12.5043261752        8.2670136092  CLST         508          1.0000000000
      1525       509  TIP3  OH2          -0.8535690978       -1.5280369172      -11.3877395707  CLST         509          1.0000000000
      1526       509  TIP3  H1           -1.8284195190       -1.6827151083      -11.5297977232  CLST         509          1.0000000000
      1527       509  TIP3  H2           -0.9379330710       -0.5650148424      -11.0642806746  CLST         509          1.0000000000
      1528       510  TIP3  OH2           8.2060849821        2.2691729537       11.4985705278  CLST         510          1.0000000000
      1529       510  TIP3  H1            8.1761408497        1.2543785567       11.4180859619  CLST         510          1.0000000000
      1530       510  TIP3  H2            9.0981160610        2.3999943249       11.0806987088  CLST         510          1.0000000000
      1531       511  TIP3  OH2          -8.8264931550       -6.0339255793       -0.7222996380  CLST         511          1.0000000000
      1532       511  TIP3  H1           -9.7890427516       -6.2282221248       -0.7050570093  CLST         511          1.0000000000
      1533       511  TIP3  H2           -8.9119307654       -5.4684449354       -1.5061665769  CLST         511          1.0000000000
      1534       512  TIP3  OH2          10.1119841074        7.0255573516        6.9376044877  CLST         512          1.0000000000
      1535       512  TIP3  H1           10.4765639280        7.6833732574        7.5841146881  CLST         512          1.0000000000
      1536       512  TIP3  H2           10.2064102447        7.7096006993        6.2052918586  CLST         512          1.0000000000
      1537       513  TIP3  OH2         -11.7564742299       10.5008244755        9.2362024084  CLST         513          1.0000000000
      1538       513  TIP3  H1          -11.2583308915       11.3530426403        9.3944099621  CLST         513          1.0000000000
      1539       513  TIP3  H2          -11.4310938737       10.0365467307       10.0246737374  CLST         513          1.0000000000
      1540       514  TIP3  OH2          -4.8203582720        5.0318692912        0.1109195533  CLST         514          1.0000000000
      1541       514  TIP3  H1           -4.0245250594        5.4312267624        0.5319276557  CLST         514          1.0000000000
      1542       514  TIP3  H2           -4.4632216494        4.9028680627       -0.8244951500  CLST         514          1.0000000000
      1543       515  TIP3  OH2          -0.7647273616        1.0030709165       -4.3439341746  CLST         515          1.0000000000
      1544       515  TIP3  H1           -1.5360241262        1.6251858271       -4.1464072763  CLST         515          1.0000000000
      1545       515  TIP3  H2           -0.1091603269        1.6465288710       -4.6989252262  CLST         515          1.0000000000
      1546       516  TIP3  OH2          -7.2233689008       -8.4486503241        6.4330674746  CLST         516          1.0000000000
      1547       516  TIP3  H1           -7.6596088254       -8.3114408887        5.5440605105  CLST         516          1.0000000000
      1548       516  TIP3  H2           -7.7479997651       -7.6437463851        6.8285825914  CLST         516          1.0000000000
      1549       517  TIP3  OH2           0.5919205950       11.1143055986       11.6320906473  CLST         517          1.0000000000
      1550       517  TIP3  H1            0.7020038049       11.0201237140       10.7266740546  CLST         517          1.0000000000
      1551       517  TIP3  H2           -0.4129044845       11.1741940491       11.6736796443  CLST         517          1.0000000000
      1552       518  TIP3  OH2         -11.5923353840       -3.6071559400      -11.4464648532  CLST         518          1.0000000000
      1553       518  TIP3  H1          -12.1634960746       -3.4030676888      -12.1214063555  CLST         518          1.0000000000
      1554       518  TIP3  H2          -10.8083408079       -3.9452984218      -11.9551313038  CLST         518          1.0000000000
      1555       519  TIP3  OH2           2.1541512598        3.4015793183        3.3821636189  CLST         519          1.0000000000
      1556       519  TIP3  H1            1.7271607959        4.1338194225        2.8710803786  CLST         519          1.0000000000
      1557       519  TIP3  H2            1.8548096379        2.6170565353        2.7895549199  CLST         519          1.0000000000
      1558       520  TIP3  OH2         -10.1215419572        6.2762237189        8.1412261104  CLST         520          1.0000000000
      1559       520  TIP3  H1          -10.4140788807        5.6648783480        7.4057849714  CLST         520          1.0000000000
      1560       520  TIP3  H2          -10.3814868611        5.6855091781        8.9036994018  CLST         520          1.0000000000
      1561       521  TIP3  OH2           8.4877546588       -9.0045434223       -9.5636839828  CLST         521          1.0000000000
      1562       521  TIP3  H1            8.7158908702       -9.4751885713      -10.3866351693  CLST         521          1.0000000000
      1563       521  TIP3  H2            8.2268124198       -8.1526395533      -10.0070526492  CLST         521          1.0000000000
      1564       522  TIP3  OH2          -5.4921148938       -7.0110366637        8.1549914673  CLST         522          1.0000000000
      1565       522  TIP3  H1           -5.6969859188       -7.7461345394        7.5978424057  CLST         522          1.0000000000
      1566       522  TIP3  H2           -4.5269144267       -7.2269934480        8.3323327021  CLST         522          1.0000000000
      1567       523  TIP3  OH2          -4.1250854475       12.0753429287      -13.7423422096  CLST         523          1.0000000000
      1568       523  TIP3  H1           -3.0937174761       11.9714130333      -13.5434378920  CLST         523          1.0000000000
      1569       523  TIP3  H2           -4.4180263951       12.5309648718      -14.3715584610  CLST         523          1.0000000000
      1570       524  TIP3  OH2           6.9630555677        3.8505612694       -1.8066600784  CLST         524          1.0000000000
      1571       524  TIP3  H1            7.2619695640        3.0274889536       -2.2422972911  CLST         524          1.0000000000
      1572       524  TIP3  H2            5.9788804669        3.8019534393       -2.0081887378  CLST         524          1.0000000000
      1573       525  TIP3  OH2           0.4367416686        6.7988281305       -2.5603375110  CLST         525          1.0000000000
      1574       525  TIP3  H1            0.6408175841        6.1598062716       -3.2834075602  CLST         525          1.0000000000
      1575       525  TIP3  H2            0.2064590011        6.0279974630       -1.9216092082  CLST         525          1.0000000000
      1576       526  TIP3  OH2           7.0767363374       -5.6023178600       -3.6465942145  CLST         526          1.0000000000
      1577       526  TIP3  H1            7.2942431695       -5.5604793487       -4.6084150030  CLST         526          1.0000000000
      1578       526  TIP3  H2            7.9387750643       -5.8967435551       -3.3008724362  CLST         526          1.0000000000
      1579       527  TIP3  OH2           0.3330974357        7.3463451440        3.8425674755  CLST         527          1.0000000000
      1580       527  TIP3  H1            0.9869743159        7.6997639880        4.5127302034  CLST         527          1.0000000000
      1581       527  TIP3  H2           -0.3786200441        7.9341376411        3.6121920966  CLST         527          1.0000000000
      1582       528  TIP3  OH2          -2.7548176853        9.8223509110        8.8528681021  CLST         528          1.0000000000
      1583       528  TIP3  H1           -3.0588404542        9.7324837699        9.7963961254  CLST         528          1.0000000000
      1584       528  TIP3  H2           -3.6235470081        9.8474432561        8.3842375260  CLST         528          1.0000000000
      1585       529  TIP3  OH2          -5.9598192690       12.3734625026       -9.3966554728  CLST         529          1.0000000000
      1586       529  TIP3  H1           -5.0851536219       12.3038088257       -9.0167936223  CLST         529          1.0000000000
      1587       529  TIP3  H2           -5.8059489365       11.8931706113      -10.2537132951  CLST         529          1.0000000000
      1588       530  TIP3  OH2          -4.3902944397       -5.6353707994      -13.3117455398  CLST         530          1.0000000000
      1589       530  TIP3  H1           -4.2740753429       -6.6118630051      -13.2317466173  CLST         530          1.0000000000
      1590       530  TIP3  H2           -3.5156629128       -5.2782764748      -12.9939061362  CLST         530          1.0000000000
      1591       531  TIP3  OH2         -11.6102003784       -0.3364359176       10.4707167291  CLST         531          1.0000000000
      1592       531  TIP3  H1          -12.1728813159       -0.1436828303       11.2115801690  CLST         531          1.0000000000
      1593       531  TIP3  H2          -12.2348914203       -0.9494915885       10.0634144946  CLST         531          1.0000000000
      1594       532  TIP3  OH2         -12.1762483615       -3.1136875022       -8.8988230377  CLST         532          1.0000000000
      1595       532  TIP3  H1          -12.5810698056       -4.0127806928       -8.8042750668  CLST         532          1.0000000000
      1596       532  TIP3  H2          -12.0006213755       -3.1931385372       -9.8807088027  CLST         532          1.0000000000
      1597       533  TIP3  OH2          -2.9873825062       -7.1677483322        8.7162274277  CLST         533          1.0000000000
      1598       533  TIP3  H1           -2.1850688367       -7.7205667368        8.5090563241  CLST         533          1.0000000000
      1599       533  TIP3  H2           -2.6710883339       -6.3624127004        8.2094293814  CLST         533          1.0000000000
      1600       534  TIP3  OH2           0.4051848927      -13.1902501802       -7.6224721578  CLST         534          1.0000000000
      1601       534  TIP3  H1            0.5567564644      -12.7848185211       -8.5050098217  CLST         534          1.0000000000
      1602       534  TIP3  H2            1.3589774637      -13.2789955440       -7.3786782797  CLST         534          1.0000000000
      1603       535  TIP3  OH2           2.6840249559        3.2967311556       -7.5821911719  CLST         535          1.0000000000
      1604       535  TIP3  H1            3.2674399417        2.6770377222       -6.9949118321  CLST         535          1.0000000000
      1605       535  TIP3  H2            2.0377931126        3.4450648654       -6.8421248255  CLST         535          1.0000000000
      1606       536  TIP3  OH2           8.0464531559      -12.7310204918       -3.2977140794  CLST         536          1.0000000000
      1607       536  TIP3  H1            7.5065481033      -12.7984077543       -4.1020954484  CLST         536          1.0000000000
      1608       536  TIP3  H2            8.7244689465      -13.3452790352       -3.6918520812  CLST         536          1.0000000000
      1609       537  TIP3  OH2          11.8199064323       -2.6074609129       -7.7098892343  CLST         537          1.0000000000
      1610       537  TIP3  H1           10.9929967110       -2.0565073218       -7.7024601757  CLST         537          1.0000000000
      1611       537  TIP3  H2           12.2840071140       -2.2246014055       -6.9386863542  CLST         537          1.0000000000
      1612       538  TIP3  OH2          -5.2156615725      -10.8431736370        0.8559977739  CLST         538          1.0000000000
      1613       538  TIP3  H1           -4.4870349232      -11.2209663385        1.4423715614  CLST         538          1.0000000000
      1614       538  TIP3  H2           -4.7546250525       -9.9160420961        0.8624690702  CLST         538          1.0000000000
      1615       539  TIP3  OH2           2.5107152188       -5.1458504021        0.9292620799  CLST         539          1.0000000000
      1616       539  TIP3  H1            1.6002115424       -5.4351361709        1.2762299550  CLST         539          1.0000000000
      1617       539  TIP3  H2            2.2653723219       -5.3433998336       -0.0019641106  CLST         539          1.0000000000
      1618       540  TIP3  OH2           3.9556677216       -6.8704358863        4.7628805701  CLST         540          1.0000000000
      1619       540  TIP3  H1            3.6511299418       -7.8175245544        4.8899598759  CLST         540          1.0000000000
      1620       540  TIP3  H2            4.1927559769       -6.9562623708        3.7839575243  CLST         540          1.0000000000
      1621       541  TIP3  OH2          -5.5692240523       10.6882495177        2.2614432275  CLST         541          1.0000000000
      1622       541  TIP3  H1           -6.1742035441       10.7171229168        3.0236107491  CLST         541          1.0000000000
      1623       541  TIP3  H2           -4.7935993186       11.3335950281        2.4745389659  CLST         541          1.0000000000
      1624       542  TIP3  OH2         -10.9264975428       14.3862951991        5.6090051726  CLST         542          1.0000000000
      1625       542  TIP3  H1          -10.9810709267       15.2965391149        5.5331091826  CLST         542          1.0000000000
      1626       542  TIP3  H2          -10.6878990860       14.0541701634        4.6436440013  CLST         542          1.0000000000
      1627       543  TIP3  OH2         -10.6719788068       11.4298381094       -2.3892003090  CLST         543          1.0000000000
      1628       543  TIP3  H1          -11.2905006612       10.6443710560       -2.5899049050  CLST         543          1.0000000000
      1629       543  TIP3  H2          -10.3755415540       11.8536607536       -3.2281475847  CLST         543          1.0000000000
      1630       544  TIP3  OH2          -0.4425390847        5.6733273529       -5.6807719784  CLST         544          1.0000000000
      1631       544  TIP3  H1           -0.3064405215        5.1857228737       -6.5658115725  CLST         544          1.0000000000
      1632       544  TIP3  H2            0.1542669149        5.1961076230       -5.0923817032  CLST         544          1.0000000000
      1633       545  TIP3  OH2          -7.8934542701        2.6530556787      -12.6152433970  CLST         545          1.0000000000
      1634       545  TIP3  H1           -8.1404087515        2.1811919100      -13.4233708209  CLST         545          1.0000000000
      1635       545  TIP3  H2           -8.5886861636        3.3848636781      -12.6043598725  CLST         545          1.0000000000
      1636       546  TIP3  OH2           3.9230653512       11.2662817782       -2.0918901925  CLST         546          1.0000000000
      1637       546  TIP3  H1            3.5406556081       10.3544583403       -2.0931173713  CLST         546          1.0000000000
      1638       546  TIP3  H2            4.6184076131       11.0610684678       -1.3848108500  CLST         546          1.0000000000
      1639       547  TIP3  OH2          -3.5887060973       -2.1780257416      -11.2170128030  CLST         547          1.0000000000
      1640       547  TIP3  H1           -3.3977914052       -2.1114260619      -10.2573494778  CLST         547          1.0000000000
      1641       547  TIP3  H2           -4.1975937475       -1.4230347270      -11.3053655111  CLST         547          1.0000000000
      1642       548  TIP3  OH2          10.5541948439        2.3438297523        1.3636707893  CLST         548          1.0000000000
      1643       548  TIP3  H1            9.6213078062        1.9885073090        1.5205407143  CLST         548          1.0000000000
      1644       548  TIP3  H2           10.3440984817        3.1733250346        1.9139090499  CLST         548          1.0000000000
