* Geometry rescue: EQUI at step 19000
*
        1644  EXT
         1         1  TIP3  OH2           4.6030621855       -1.4527538713       -2.3644529136  CLST           1          1.0000000000
         2         1  TIP3  H1            4.8091785609       -1.6098330745       -1.4136707521  CLST           1          1.0000000000
         3         1  TIP3  H2            5.2210724875       -2.1430546371       -2.6854543465  CLST           1          1.0000000000
         4         2  TIP3  OH2          10.6447900495        7.4896012403      -11.8842990443  CLST           2          1.0000000000
         5         2  TIP3  H1           10.9192875212        7.2923789771      -10.9104527994  CLST           2          1.0000000000
         6         2  TIP3  H2            9.7096463943        7.2686707374      -11.6698588359  CLST           2          1.0000000000
         7         3  TIP3  OH2           8.8598736706        5.4199746482       -4.0062356459  CLST           3          1.0000000000
         8         3  TIP3  H1            9.1941738296        5.5674077304       -3.0849833591  CLST           3          1.0000000000
         9         3  TIP3  H2            9.2764311699        6.1959360801       -4.4176093078  CLST           3          1.0000000000
        10         4  TIP3  OH2          -2.8138454385        6.8398738498       10.1524364670  CLST           4          1.0000000000
        11         4  TIP3  H1           -3.6766096069        7.0746909534        9.6498021946  CLST           4          1.0000000000
        12         4  TIP3  H2           -3.0228290763        7.3859326276       10.8908009282  CLST           4          1.0000000000
        13         5  TIP3  OH2           9.0871937361        6.0950148907       10.4902981634  CLST           5          1.0000000000
        14         5  TIP3  H1            8.5268635062        5.5207941115       11.0946002900  CLST           5          1.0000000000
        15         5  TIP3  H2            8.9724808568        5.5130593215        9.6829493757  CLST           5          1.0000000000
        16         6  TIP3  OH2          10.7197369201       -6.0688825592      -11.6871549677  CLST           6          1.0000000000
        17         6  TIP3  H1           11.2063084057       -5.6167813924      -10.9495283282  CLST           6          1.0000000000
        18         6  TIP3  H2           10.8183919578       -5.3595131224      -12.3692335936  CLST           6          1.0000000000
        19         7  TIP3  OH2         -12.2015728492        8.2720172713        5.8830430695  CLST           7          1.0000000000
        20         7  TIP3  H1          -13.2075386475        9.2127688964        5.5839587564  CLST           7          1.0000000000
        21         7  TIP3  H2          -11.6805675528        8.7677366113        6.6369862328  CLST           7          1.0000000000
        22         8  TIP3  OH2          -4.5249960521       -8.2284140922        0.5073118585  CLST           8          1.0000000000
        23         8  TIP3  H1           -4.9063687201       -7.7041658317        1.2613966964  CLST           8          1.0000000000
        24         8  TIP3  H2           -3.7275700645       -7.5984136870        0.2457912932  CLST           8          1.0000000000
        25         9  TIP3  OH2           2.4473890541      -14.2849289443       -4.1783220817  CLST           9          1.0000000000
        26         9  TIP3  H1            1.5446639228      -14.2244669147       -3.9043182736  CLST           9          1.0000000000
        27         9  TIP3  H2            2.8706806958      -14.3666585488       -3.3054529798  CLST           9          1.0000000000
        28        10  TIP3  OH2         -14.1592715054       -1.2421423500       -0.5572746837  CLST          10          1.0000000000
        29        10  TIP3  H1          -13.7048697444       -1.4432255630       -1.4046389426  CLST          10          1.0000000000
        30        10  TIP3  H2          -14.5258911524       -2.0331196673       -0.3977439721  CLST          10          1.0000000000
        31        11  TIP3  OH2           6.9275570292        6.8089855085       -2.0548965357  CLST          11          1.0000000000
        32        11  TIP3  H1            7.2147612106        5.9250446163       -1.8663246413  CLST          11          1.0000000000
        33        11  TIP3  H2            6.8194250412        6.7863082976       -3.0317738304  CLST          11          1.0000000000
        34        12  TIP3  OH2          -8.2497520419        2.5036532292        2.0111846588  CLST          12          1.0000000000
        35        12  TIP3  H1           -7.7180550990        2.5988800765        1.1824286032  CLST          12          1.0000000000
        36        12  TIP3  H2           -9.1263957909        2.5274123697        1.5009536516  CLST          12          1.0000000000
        37        13  TIP3  OH2           7.6790721542        2.3044654854        2.1526412533  CLST          13          1.0000000000
        38        13  TIP3  H1            7.6251960003        3.1723798882        1.6792888512  CLST          13          1.0000000000
        39        13  TIP3  H2            7.6032212391        2.7429904240        3.0358373591  CLST          13          1.0000000000
        40        14  TIP3  OH2          -0.4512714284        2.1833330685        8.0067483400  CLST          14          1.0000000000
        41        14  TIP3  H1           -0.1452146108        3.0866185151        7.6920080330  CLST          14          1.0000000000
        42        14  TIP3  H2            0.2827254609        1.7087056771        7.5669678299  CLST          14          1.0000000000
        43        15  TIP3  OH2          -8.8914702448       -3.9625847357      -12.6048448425  CLST          15          1.0000000000
        44        15  TIP3  H1           -8.0078466941       -3.9858056826      -13.1268924999  CLST          15          1.0000000000
        45        15  TIP3  H2           -8.4695967872       -4.4916092310      -11.9094753197  CLST          15          1.0000000000
        46        16  TIP3  OH2          -3.8648863767      -12.7050631566       -6.2591179910  CLST          16          1.0000000000
        47        16  TIP3  H1           -4.4670104282      -12.8504985507       -5.4492997416  CLST          16          1.0000000000
        48        16  TIP3  H2           -2.9971205122      -12.8378538217       -5.7296140345  CLST          16          1.0000000000
        49        17  TIP3  OH2           5.0753383280      -13.3026716979       -8.3575950156  CLST          17          1.0000000000
        50        17  TIP3  H1            5.6527326217      -13.1255454261       -7.5596394054  CLST          17          1.0000000000
        51        17  TIP3  H2            4.3400471021      -13.6676294189       -7.7443903087  CLST          17          1.0000000000
        52        18  TIP3  OH2         -11.6895731414       -6.8360186181       -1.5069060568  CLST          18          1.0000000000
        53        18  TIP3  H1          -12.2410745746       -6.0695512779       -1.7281635062  CLST          18          1.0000000000
        54        18  TIP3  H2          -11.6116192493       -7.1439828473       -2.5143096152  CLST          18          1.0000000000
        55        19  TIP3  OH2          11.0443752797        0.0135139886        9.5426249820  CLST          19          1.0000000000
        56        19  TIP3  H1           10.7172452874       -0.8986262832        9.6366474499  CLST          19          1.0000000000
        57        19  TIP3  H2           11.2657670245       -0.1654538913        8.5300346068  CLST          19          1.0000000000
        58        20  TIP3  OH2         -13.4343240189        1.4970191390        2.8387420738  CLST          20          1.0000000000
        59        20  TIP3  H1          -13.2360181552        1.2444797875        1.9024391782  CLST          20          1.0000000000
        60        20  TIP3  H2          -14.3093236586        1.1769335201        2.9941143619  CLST          20          1.0000000000
        61        21  TIP3  OH2         -10.3179422870       12.6401399025       -5.2507743591  CLST          21          1.0000000000
        62        21  TIP3  H1          -10.1677727717       13.5523088491       -5.3658953486  CLST          21          1.0000000000
        63        21  TIP3  H2           -9.6576915553       12.3711804726       -5.9025979988  CLST          21          1.0000000000
        64        22  TIP3  OH2           2.9338943182       12.1298457255       -6.5085022031  CLST          22          1.0000000000
        65        22  TIP3  H1            3.5370520131       11.4370559229       -6.1231786183  CLST          22          1.0000000000
        66        22  TIP3  H2            3.1562633323       12.7472114192       -5.7305405801  CLST          22          1.0000000000
        67        23  TIP3  OH2           5.6842102346       -1.8729590608       11.4165432599  CLST          23          1.0000000000
        68        23  TIP3  H1            5.4285275549       -2.4036171880       10.6268674395  CLST          23          1.0000000000
        69        23  TIP3  H2            5.2885623771       -0.9951072667       11.2482022232  CLST          23          1.0000000000
        70        24  TIP3  OH2          -0.0585209647        1.1044626298        4.6477940508  CLST          24          1.0000000000
        71        24  TIP3  H1            0.7879762645        1.1219385539        5.0818239207  CLST          24          1.0000000000
        72        24  TIP3  H2           -0.6535810784        0.5114914012        5.1592261541  CLST          24          1.0000000000
        73        25  TIP3  OH2           3.3883679695        1.9569586343       -2.7116564537  CLST          25          1.0000000000
        74        25  TIP3  H1            3.8115674821        1.4062982877       -2.0078990429  CLST          25          1.0000000000
        75        25  TIP3  H2            3.8350118425        2.8159525601       -2.5506620626  CLST          25          1.0000000000
        76        26  TIP3  OH2          11.3164971970        5.4421974268       -6.4963114330  CLST          26          1.0000000000
        77        26  TIP3  H1           10.4428245776        5.1560492036       -6.9813626522  CLST          26          1.0000000000
        78        26  TIP3  H2           11.1782806005        6.2732736661       -6.0754762882  CLST          26          1.0000000000
        79        27  TIP3  OH2         -10.3373930341        7.3276842530       -5.5639078551  CLST          27          1.0000000000
        80        27  TIP3  H1          -10.1609083482        7.9504110416       -4.8146446101  CLST          27          1.0000000000
        81        27  TIP3  H2          -10.5198291783        7.8586057697       -6.2723575437  CLST          27          1.0000000000
        82        28  TIP3  OH2          -4.3366958151      -10.3075239640       -6.7609564961  CLST          28          1.0000000000
        83        28  TIP3  H1           -4.3190331319      -11.2659531835       -6.7241095567  CLST          28          1.0000000000
        84        28  TIP3  H2           -4.9549338608      -10.0654826164       -6.0281865810  CLST          28          1.0000000000
        85        29  TIP3  OH2         -10.7405162421        7.7028910234       -2.5508685711  CLST          29          1.0000000000
        86        29  TIP3  H1          -10.1116805322        8.3871288949       -2.1277587391  CLST          29          1.0000000000
        87        29  TIP3  H2          -11.5273773653        8.3491200165       -2.5844437969  CLST          29          1.0000000000
        88        30  TIP3  OH2           8.8473079273      -10.5257833910       -2.0813914864  CLST          30          1.0000000000
        89        30  TIP3  H1            9.5214073256      -11.0429779623       -1.4612455235  CLST          30          1.0000000000
        90        30  TIP3  H2            8.4525194764      -11.3519108329       -2.4952234915  CLST          30          1.0000000000
        91        31  TIP3  OH2          -9.6055807954       -1.2697253699      -12.9885491324  CLST          31          1.0000000000
        92        31  TIP3  H1           -9.5146869263       -2.2492351762      -12.7970893183  CLST          31          1.0000000000
        93        31  TIP3  H2           -9.4775079845       -0.8462015757      -12.1158034438  CLST          31          1.0000000000
        94        32  TIP3  OH2          -8.8009577401       -6.4638299306        7.0824327923  CLST          32          1.0000000000
        95        32  TIP3  H1           -9.5035185607       -6.0715412689        7.6146724934  CLST          32          1.0000000000
        96        32  TIP3  H2           -8.7730701598       -5.7851827654        6.3398826894  CLST          32          1.0000000000
        97        33  TIP3  OH2          11.7778543664       -8.8585751256        8.8885616541  CLST          33          1.0000000000
        98        33  TIP3  H1           11.8531979608       -9.8548190638        8.9551092987  CLST          33          1.0000000000
        99        33  TIP3  H2           11.2519412133       -8.7218964684        9.7303024775  CLST          33          1.0000000000
       100        34  TIP3  OH2           4.2004335717       -3.7441132287        2.8744975021  CLST          34          1.0000000000
       101        34  TIP3  H1            3.6905131744       -3.8896805890        2.0483081821  CLST          34          1.0000000000
       102        34  TIP3  H2            4.0439537555       -4.5672881917        3.4100805215  CLST          34          1.0000000000
       103        35  TIP3  OH2           6.1661688229       -0.8095629303        4.4506981237  CLST          35          1.0000000000
       104        35  TIP3  H1            5.3596640460       -1.1043551386        4.9075269717  CLST          35          1.0000000000
       105        35  TIP3  H2            6.5116851227       -0.1314497537        5.0905932122  CLST          35          1.0000000000
       106        36  TIP3  OH2          -1.5367743954        1.4406774271        2.3436707980  CLST          36          1.0000000000
       107        36  TIP3  H1           -2.2980124821        0.8729499859        2.3237444699  CLST          36          1.0000000000
       108        36  TIP3  H2           -1.1312645958        1.0835977581        3.2027994564  CLST          36          1.0000000000
       109        37  TIP3  OH2          -4.4553853472       -8.2709404629      -12.9283454344  CLST          37          1.0000000000
       110        37  TIP3  H1           -5.1357560931       -8.4966199917      -12.2611261367  CLST          37          1.0000000000
       111        37  TIP3  H2           -4.1158776938       -9.0764646366      -13.2965681316  CLST          37          1.0000000000
       112        38  TIP3  OH2          -3.2129953170        2.0850219798       -4.4749559802  CLST          38          1.0000000000
       113        38  TIP3  H1           -3.0603971572        3.0556112561       -4.7775129852  CLST          38          1.0000000000
       114        38  TIP3  H2           -3.6870053070        1.7671119810       -5.3033399273  CLST          38          1.0000000000
       115        39  TIP3  OH2           1.5701448489      -10.8625993295        2.0382909267  CLST          39          1.0000000000
       116        39  TIP3  H1            1.3617878415      -11.4091126036        2.8092530758  CLST          39          1.0000000000
       117        39  TIP3  H2            0.6950222758      -10.5011563302        1.8387578186  CLST          39          1.0000000000
       118        40  TIP3  OH2          -7.0661924746       12.5615034931        8.2765948158  CLST          40          1.0000000000
       119        40  TIP3  H1           -7.9601726064       12.7871072874        7.9913202235  CLST          40          1.0000000000
       120        40  TIP3  H2           -6.4510253594       12.9635789795        7.5774364067  CLST          40          1.0000000000
       121        41  TIP3  OH2           9.7721381483       -2.2800433242      -11.0341475361  CLST          41          1.0000000000
       122        41  TIP3  H1            9.0360859795       -2.8301847123      -10.6631053351  CLST          41          1.0000000000
       123        41  TIP3  H2            9.6246688607       -1.5165733273      -10.4817903642  CLST          41          1.0000000000
       124        42  TIP3  OH2           9.5353679961       10.2851360103      -10.6683755404  CLST          42          1.0000000000
       125        42  TIP3  H1           10.3503638326       10.0967630561      -10.1214347860  CLST          42          1.0000000000
       126        42  TIP3  H2           10.0117852246       10.2589292991      -11.5655502088  CLST          42          1.0000000000
       127        43  TIP3  OH2          12.0920269151       12.5082274363        7.8503979433  CLST          43          1.0000000000
       128        43  TIP3  H1           12.5963357960       13.1759557653        8.0477094248  CLST          43          1.0000000000
       129        43  TIP3  H2           12.3627237233       11.6229776577        8.2645718057  CLST          43          1.0000000000
       130        44  TIP3  OH2           7.5571178651        1.0194182532        5.9191477939  CLST          44          1.0000000000
       131        44  TIP3  H1            7.8128039599        1.4679240991        6.7855647263  CLST          44          1.0000000000
       132        44  TIP3  H2            7.3097290683        1.9414965665        5.5086462342  CLST          44          1.0000000000
       133        45  TIP3  OH2           7.9322388992        9.4615644520        7.3437210657  CLST          45          1.0000000000
       134        45  TIP3  H1            7.8329460938        8.5207547320        7.6406420692  CLST          45          1.0000000000
       135        45  TIP3  H2            8.8573930180        9.5680061819        7.7241105533  CLST          45          1.0000000000
       136        46  TIP3  OH2          -5.4560424486       -3.0692822135      -12.7856625817  CLST          46          1.0000000000
       137        46  TIP3  H1           -5.0753913621       -3.9232694458      -13.0351136497  CLST          46          1.0000000000
       138        46  TIP3  H2           -4.7326730207       -2.7569494268      -12.2835719944  CLST          46          1.0000000000
       139        47  TIP3  OH2           1.2260670464       -6.4565668961      -11.1613310404  CLST          47          1.0000000000
       140        47  TIP3  H1            1.8488039718       -5.6697003382      -11.3626179781  CLST          47          1.0000000000
       141        47  TIP3  H2            1.0520530228       -6.6372691140      -12.1383260095  CLST          47          1.0000000000
       142        48  TIP3  OH2           5.0561805196        5.6289259963        1.1294917092  CLST          48          1.0000000000
       143        48  TIP3  H1            6.0308702012        5.3817932994        0.8901713366  CLST          48          1.0000000000
       144        48  TIP3  H2            5.3228287268        6.6358904842        1.0389531523  CLST          48          1.0000000000
       145        49  TIP3  OH2          -3.5072106857      -10.7779575462      -13.5996789104  CLST          49          1.0000000000
       146        49  TIP3  H1           -2.5738687722      -11.0522914190      -13.4381962231  CLST          49          1.0000000000
       147        49  TIP3  H2           -4.0068066071      -11.2500868142      -12.9110587530  CLST          49          1.0000000000
       148        50  TIP3  OH2           2.9787005275        3.7509078384        5.9018959019  CLST          50          1.0000000000
       149        50  TIP3  H1            2.0952290202        4.1220765725        6.2555757469  CLST          50          1.0000000000
       150        50  TIP3  H2            2.6667226150        3.6217426182        4.9927640663  CLST          50          1.0000000000
       151        51  TIP3  OH2          -6.3469844143      -10.0091230676       -4.7354525269  CLST          51          1.0000000000
       152        51  TIP3  H1           -6.3449527131       -9.9405077602       -3.7474521392  CLST          51          1.0000000000
       153        51  TIP3  H2           -6.5383441082      -10.9519414820       -4.8435907316  CLST          51          1.0000000000
       154        52  TIP3  OH2           8.9724896497       -5.7448801057       -0.2048896057  CLST          52          1.0000000000
       155        52  TIP3  H1            9.3041405413       -5.6221241338       -1.1391712183  CLST          52          1.0000000000
       156        52  TIP3  H2            8.9562505232       -4.7879647714       -0.0256063285  CLST          52          1.0000000000
       157        53  TIP3  OH2          -9.7275533928        9.9309608504      -12.5215215901  CLST          53          1.0000000000
       158        53  TIP3  H1           -9.3888917305       10.4643556504      -13.4599382672  CLST          53          1.0000000000
       159        53  TIP3  H2           -8.5275598789        9.4928673139      -12.6590402881  CLST          53          1.0000000000
       160        54  TIP3  OH2           0.5467887007       -3.1560257230       -9.4556064808  CLST          54          1.0000000000
       161        54  TIP3  H1            1.1563501760       -3.7005935565       -9.9912802473  CLST          54          1.0000000000
       162        54  TIP3  H2            0.1838789609       -2.5402506684      -10.0987711529  CLST          54          1.0000000000
       163        55  TIP3  OH2           2.7488496132       -4.1705398551      -14.5820626027  CLST          55          1.0000000000
       164        55  TIP3  H1            2.9876934587       -5.0344583102      -14.1586712584  CLST          55          1.0000000000
       165        55  TIP3  H2            2.9187598470       -4.4632001751      -15.4454238983  CLST          55          1.0000000000
       166        56  TIP3  OH2         -10.0615524042       11.2202976331        5.7004393074  CLST          56          1.0000000000
       167        56  TIP3  H1          -10.3064679099       10.2914415222        5.9974212432  CLST          56          1.0000000000
       168        56  TIP3  H2          -10.3199840409       11.2615342520        4.7438720320  CLST          56          1.0000000000
       169        57  TIP3  OH2           1.6846223231      -13.1713959928        0.4305930453  CLST          57          1.0000000000
       170        57  TIP3  H1            1.9061000464      -12.3198812022        0.8470137837  CLST          57          1.0000000000
       171        57  TIP3  H2            2.4870741074      -13.1496074137       -0.1863676579  CLST          57          1.0000000000
       172        58  TIP3  OH2         -13.0699178893       10.6787198632        7.3952786913  CLST          58          1.0000000000
       173        58  TIP3  H1          -11.9557098515       12.3679804397        6.9994317718  CLST          58          1.0000000000
       174        58  TIP3  H2          -12.6583518258       11.3519073805        8.3377372732  CLST          58          1.0000000000
       175        59  TIP3  OH2         -11.6262384154       -2.6153147171        5.7152743180  CLST          59          1.0000000000
       176        59  TIP3  H1          -11.7400579814       -2.2794327553        6.6375874266  CLST          59          1.0000000000
       177        59  TIP3  H2          -11.7680738399       -1.8334090376        5.1605387983  CLST          59          1.0000000000
       178        60  TIP3  OH2           1.3342525923        9.5457304858        8.5465871046  CLST          60          1.0000000000
       179        60  TIP3  H1            0.6523976762        8.9633549999        8.1968027526  CLST          60          1.0000000000
       180        60  TIP3  H2            1.8425085014        8.7558804182        8.8628172885  CLST          60          1.0000000000
       181        61  TIP3  OH2           2.7084831018       -0.7589290750       -5.6299155908  CLST          61          1.0000000000
       182        61  TIP3  H1            3.3248914629       -1.5678185693       -5.5835617854  CLST          61          1.0000000000
       183        61  TIP3  H2            2.0299105918       -1.0764118257       -6.2462372063  CLST          61          1.0000000000
       184        62  TIP3  OH2           7.9401824173        8.4303801648       12.5179180661  CLST          62          1.0000000000
       185        62  TIP3  H1            8.0985501867        7.6648693078       11.9680958727  CLST          62          1.0000000000
       186        62  TIP3  H2            8.2128295930        9.2020554678       11.9715485593  CLST          62          1.0000000000
       187        63  TIP3  OH2           4.5137009997       -6.9681480361      -10.1965799978  CLST          63          1.0000000000
       188        63  TIP3  H1            3.6624902300       -6.8939219904      -10.6636180832  CLST          63          1.0000000000
       189        63  TIP3  H2            5.0555872547       -7.4632045358      -10.9039371636  CLST          63          1.0000000000
       190        64  TIP3  OH2          -2.2230257460       11.7549920622        5.4473893041  CLST          64          1.0000000000
       191        64  TIP3  H1           -2.1354036204       10.7613941874        5.4021768489  CLST          64          1.0000000000
       192        64  TIP3  H2           -1.5172936191       11.7936050856        6.1813817719  CLST          64          1.0000000000
       193        65  TIP3  OH2          10.9764716524       -4.0886769905       -5.0009878364  CLST          65          1.0000000000
       194        65  TIP3  H1           11.4722079146       -3.8746037894       -5.8072320384  CLST          65          1.0000000000
       195        65  TIP3  H2           10.5460400230       -3.2457451252       -4.7980214560  CLST          65          1.0000000000
       196        66  TIP3  OH2           6.3226185489       -9.9281703202        9.3630504999  CLST          66          1.0000000000
       197        66  TIP3  H1            5.5959955988       -9.9842384270        8.6943237276  CLST          66          1.0000000000
       198        66  TIP3  H2            6.6734252392       -9.0849061809        9.0278552003  CLST          66          1.0000000000
       199        67  TIP3  OH2         -11.5007128718       -7.7187867236       -3.9840523150  CLST          67          1.0000000000
       200        67  TIP3  H1          -10.6619649783       -7.5052986728       -4.3043063198  CLST          67          1.0000000000
       201        67  TIP3  H2          -12.0407480972       -7.8760084727       -4.7134779603  CLST          67          1.0000000000
       202        68  TIP3  OH2          -0.7657356501       -5.5856298844        5.4169180136  CLST          68          1.0000000000
       203        68  TIP3  H1            0.3116486326       -5.4856113681        5.6296173608  CLST          68          1.0000000000
       204        68  TIP3  H2           -1.0374593475       -5.4009051776        6.3626299363  CLST          68          1.0000000000
       205        69  TIP3  OH2           7.9541734133       11.5213914315       -8.7024851137  CLST          69          1.0000000000
       206        69  TIP3  H1            8.3165741248       11.2568303483       -9.6144740202  CLST          69          1.0000000000
       207        69  TIP3  H2            8.8943541580       11.6747281037       -8.3964528282  CLST          69          1.0000000000
       208        70  TIP3  OH2          -0.8873086531      -12.4846911871       -0.4807624516  CLST          70          1.0000000000
       209        70  TIP3  H1            0.0966048582      -12.4204426588       -0.3055889942  CLST          70          1.0000000000
       210        70  TIP3  H2           -1.1463361352      -12.5888307393        0.4834890605  CLST          70          1.0000000000
       211        71  TIP3  OH2         -10.1137064265       -7.3960697657        1.9061668047  CLST          71          1.0000000000
       212        71  TIP3  H1          -10.8546984289       -6.7833057682        2.1998960890  CLST          71          1.0000000000
       213        71  TIP3  H2          -10.7039409124       -7.8972174517        1.2839760726  CLST          71          1.0000000000
       214        72  TIP3  OH2           0.1704139153        2.1229499312       -1.4660298794  CLST          72          1.0000000000
       215        72  TIP3  H1           -0.2073646127        1.1929198934       -1.3527583605  CLST          72          1.0000000000
       216        72  TIP3  H2            1.0039416486        1.8822780338       -1.9028914362  CLST          72          1.0000000000
       217        73  TIP3  OH2          -9.6651396271       13.2081801759        7.4117721965  CLST          73          1.0000000000
       218        73  TIP3  H1           -9.7552921888       12.4051583113        6.7724872653  CLST          73          1.0000000000
       219        73  TIP3  H2          -10.0889850187       13.8935055352        6.8673313363  CLST          73          1.0000000000
       220        74  TIP3  OH2           6.4649107816       -2.8268080304       -3.7076367495  CLST          74          1.0000000000
       221        74  TIP3  H1            6.7203614668       -3.7543466092       -3.9324853165  CLST          74          1.0000000000
       222        74  TIP3  H2            7.3377702760       -2.4044807923       -3.5762090277  CLST          74          1.0000000000
       223        75  TIP3  OH2           2.8226910036      -13.3454984489       -6.6162592923  CLST          75          1.0000000000
       224        75  TIP3  H1            3.0515633291      -12.4253244212       -6.3040169656  CLST          75          1.0000000000
       225        75  TIP3  H2            2.8446823624      -13.7674986085       -5.6840553664  CLST          75          1.0000000000
       226        76  TIP3  OH2           3.9283781865       -9.6897266135        1.1496827454  CLST          76          1.0000000000
       227        76  TIP3  H1            4.0029804393       -8.8172300584        1.5370070198  CLST          76          1.0000000000
       228        76  TIP3  H2            3.1602788210      -10.0763622183        1.5890859430  CLST          76          1.0000000000
       229        77  TIP3  OH2          10.4481984046       -8.1441752790       -2.6707306688  CLST          77          1.0000000000
       230        77  TIP3  H1            9.9211751928       -8.9893858876       -2.6767006979  CLST          77          1.0000000000
       231        77  TIP3  H2           10.3948328010       -7.9889987538       -3.6499495213  CLST          77          1.0000000000
       232        78  TIP3  OH2          10.8077070671       11.7679960253       -7.6242526884  CLST          78          1.0000000000
       233        78  TIP3  H1           11.3151719662       11.0558527570       -8.1234716955  CLST          78          1.0000000000
       234        78  TIP3  H2           11.2173991246       12.4888774386       -7.5459773464  CLST          78          1.0000000000
       235        79  TIP3  OH2          12.6926062374        0.7884848206        1.1323735994  CLST          79          1.0000000000
       236        79  TIP3  H1           13.1592696848        0.8690849890        1.9154834790  CLST          79          1.0000000000
       237        79  TIP3  H2           11.6086430377        1.9190053636        1.4216137563  CLST          79          1.0000000000
       238        80  TIP3  OH2          -7.5829286562       -0.2457215712        6.6418271925  CLST          80          1.0000000000
       239        80  TIP3  H1           -7.4491154641       -0.1909661058        5.6462410650  CLST          80          1.0000000000
       240        80  TIP3  H2           -6.6135085029       -0.2262175173        6.8660877611  CLST          80          1.0000000000
       241        81  TIP3  OH2          -7.4989661187      -10.8133264188        2.3042210942  CLST          81          1.0000000000
       242        81  TIP3  H1           -6.7847036187      -10.8540767231        1.5599746885  CLST          81          1.0000000000
       243        81  TIP3  H2           -7.1088505485      -11.1315319087        3.1265565611  CLST          81          1.0000000000
       244        82  TIP3  OH2          -1.6846866883       -9.8658512730       -6.6069929153  CLST          82          1.0000000000
       245        82  TIP3  H1           -2.6836688324       -9.9028578578       -6.6422342426  CLST          82          1.0000000000
       246        82  TIP3  H2           -1.5771565043      -10.7065955001       -6.1249331540  CLST          82          1.0000000000
       247        83  TIP3  OH2          12.2960110124       -8.6909219301        1.6090504327  CLST          83          1.0000000000
       248        83  TIP3  H1           12.5304634253       -8.0070497962        2.3051876296  CLST          83          1.0000000000
       249        83  TIP3  H2           11.3325813729       -8.4921942736        1.5371760776  CLST          83          1.0000000000
       250        84  TIP3  OH2          -3.5277656902       10.9801655717       -2.0859807417  CLST          84          1.0000000000
       251        84  TIP3  H1           -5.8455084049       11.2959421717       -2.5959238607  CLST          84          1.0000000000
       252        84  TIP3  H2           -3.8838296330       11.8707555831       -1.8626450534  CLST          84          1.0000000000
       253        85  TIP3  OH2           5.9755001936       -2.2301307678        0.1417899515  CLST          85          1.0000000000
       254        85  TIP3  H1            6.1584534356       -1.6867378145        0.9157721113  CLST          85          1.0000000000
       255        85  TIP3  H2            6.8429505543       -2.7213919975        0.1944459719  CLST          85          1.0000000000
       256        86  TIP3  OH2           6.5772734243       -8.4994912326        5.9499473838  CLST          86          1.0000000000
       257        86  TIP3  H1            5.7983629006       -8.5470613723        6.5508020562  CLST          86          1.0000000000
       258        86  TIP3  H2            6.5221354683       -7.5366848555        5.7382785193  CLST          86          1.0000000000
       259        87  TIP3  OH2          -1.1294050819       -3.6485289598       10.7904691817  CLST          87          1.0000000000
       260        87  TIP3  H1           -0.3461686177       -4.5868700929       11.9525569179  CLST          87          1.0000000000
       261        87  TIP3  H2           -1.8553659971       -4.8457394053       11.2002106805  CLST          87          1.0000000000
       262        88  TIP3  OH2          -0.9784858048        4.4664419070       -8.0544200707  CLST          88          1.0000000000
       263        88  TIP3  H1           -1.1275621692        3.4783586004       -7.9364788308  CLST          88          1.0000000000
       264        88  TIP3  H2           -1.9285773034        4.6839166187       -8.2367540129  CLST          88          1.0000000000
       265        89  TIP3  OH2           3.5848440698        0.7501568415      -11.7817646142  CLST          89          1.0000000000
       266        89  TIP3  H1            3.3291368735        1.3115315877      -12.4318253373  CLST          89          1.0000000000
       267        89  TIP3  H2            3.6879197229        0.0057460487      -12.4036112073  CLST          89          1.0000000000
       268        90  TIP3  OH2           5.4582323392       11.0821702748       -5.5470794878  CLST          90          1.0000000000
       269        90  TIP3  H1            5.0430371726       12.3522729373       -4.4910076608  CLST          90          1.0000000000
       270        90  TIP3  H2            5.6509250893       11.9256032394       -6.7485073751  CLST          90          1.0000000000
       271        91  TIP3  OH2           6.0149623215       -7.8836231445      -12.1731824888  CLST          91          1.0000000000
       272        91  TIP3  H1            6.2147849457       -8.8744697302      -12.1896620418  CLST          91          1.0000000000
       273        91  TIP3  H2            6.9137342987       -7.5330636213      -11.9847445832  CLST          91          1.0000000000
       274        92  TIP3  OH2           9.8118765985       11.5344558489        2.4652265246  CLST          92          1.0000000000
       275        92  TIP3  H1           10.1550371054       11.4980590772        3.3869860056  CLST          92          1.0000000000
       276        92  TIP3  H2            9.6237380461       12.5126879959        2.4493313735  CLST          92          1.0000000000
       277        93  TIP3  OH2          -8.8122995261        7.2697912792        2.7492376180  CLST          93          1.0000000000
       278        93  TIP3  H1           -8.6881464104        8.1962950095        2.4966838440  CLST          93          1.0000000000
       279        93  TIP3  H2           -7.9752734908        6.9924313427        3.0952916319  CLST          93          1.0000000000
       280        94  TIP3  OH2         -14.0428552985        6.4530007412        6.3203809285  CLST          94          1.0000000000
       281        94  TIP3  H1          -13.3243592814        7.1577128860        6.1702562090  CLST          94          1.0000000000
       282        94  TIP3  H2          -14.2996931502        6.3276346554        5.3418725253  CLST          94          1.0000000000
       283        95  TIP3  OH2           9.7988716712        5.6738864169       -1.7930780730  CLST          95          1.0000000000
       284        95  TIP3  H1            9.8289408701        5.9979241811       -0.8435987584  CLST          95          1.0000000000
       285        95  TIP3  H2           10.2555307051        4.8200844723       -1.6583084294  CLST          95          1.0000000000
       286        96  TIP3  OH2           9.5605317676      -10.9444294448       11.2601073461  CLST          96          1.0000000000
       287        96  TIP3  H1           10.3488800007      -11.2462394295       10.7086735131  CLST          96          1.0000000000
       288        96  TIP3  H2            9.0156859764      -11.7603624820       11.3361172303  CLST          96          1.0000000000
       289        97  TIP3  OH2          -7.6838291686        6.9512146306        8.7044028239  CLST          97          1.0000000000
       290        97  TIP3  H1           -7.3923684366        6.0176213542        9.0691772192  CLST          97          1.0000000000
       291        97  TIP3  H2           -8.6933897444        6.6635107608        8.6566805857  CLST          97          1.0000000000
       292        98  TIP3  OH2           6.0353724065        0.5867235077       -3.5598777958  CLST          98          1.0000000000
       293        98  TIP3  H1            6.7518948320        0.3110932309       -2.9285579563  CLST          98          1.0000000000
       294        98  TIP3  H2            5.3550657164       -0.0253765327       -3.1774362283  CLST          98          1.0000000000
       295        99  TIP3  OH2          -6.8134493110      -11.3051257107        4.7995430627  CLST          99          1.0000000000
       296        99  TIP3  H1           -7.1170326249      -10.8509569818        5.6102864879  CLST          99          1.0000000000
       297        99  TIP3  H2           -6.1226232624      -11.8412476090        5.2125521808  CLST          99          1.0000000000
       298       100  TIP3  OH2           2.4025024516        0.5950722412       -9.1057960784  CLST         100          1.0000000000
       299       100  TIP3  H1            2.8044311765        0.6330472949      -10.0089315085  CLST         100          1.0000000000
       300       100  TIP3  H2            2.8431801986        1.3723066292       -8.7529651852  CLST         100          1.0000000000
       301       101  TIP3  OH2          12.7195377003       -6.9776457971        3.8988709768  CLST         101          1.0000000000
       302       101  TIP3  H1           12.6108027452       -7.3532489267        4.8744012925  CLST         101          1.0000000000
       303       101  TIP3  H2           13.4337023709       -6.5358831296        3.9673025653  CLST         101          1.0000000000
       304       102  TIP3  OH2         -12.1119893718       10.5017325698        1.3835083975  CLST         102          1.0000000000
       305       102  TIP3  H1          -13.2902392506       10.0476522359        2.4941390246  CLST         102          1.0000000000
       306       102  TIP3  H2          -12.9996200831        9.5380159611        0.7025162375  CLST         102          1.0000000000
       307       103  TIP3  OH2          -0.7008328260       -9.3116236205        7.7057845554  CLST         103          1.0000000000
       308       103  TIP3  H1           -0.0154962829       -9.5717222056        8.3898883873  CLST         103          1.0000000000
       309       103  TIP3  H2           -1.3112472292      -10.0652378235        7.8866802152  CLST         103          1.0000000000
       310       104  TIP3  OH2          -4.2245879865      -12.0695359339       10.1192564137  CLST         104          1.0000000000
       311       104  TIP3  H1           -4.9850039272      -11.6828394854       10.6857022503  CLST         104          1.0000000000
       312       104  TIP3  H2           -4.8500928238      -12.5145043684        9.4973339668  CLST         104          1.0000000000
       313       105  TIP3  OH2          -5.2655235270       10.9467770039      -11.5576022626  CLST         105          1.0000000000
       314       105  TIP3  H1           -4.3932940554       11.5882183863      -12.8883525426  CLST         105          1.0000000000
       315       105  TIP3  H2           -5.7730171968       10.4832214983      -12.3425980860  CLST         105          1.0000000000
       316       106  TIP3  OH2           7.4638661191       -8.3318724012       -1.2285506061  CLST         106          1.0000000000
       317       106  TIP3  H1            8.1895864401       -7.7483705756       -1.4861152684  CLST         106          1.0000000000
       318       106  TIP3  H2            7.8540973052       -9.2150336440       -1.5268554546  CLST         106          1.0000000000
       319       107  TIP3  OH2          -8.4043471581       -4.5810044191        5.0362988617  CLST         107          1.0000000000
       320       107  TIP3  H1           -9.1426600530       -4.2032342597        4.5140395150  CLST         107          1.0000000000
       321       107  TIP3  H2           -7.5894951148       -4.2493447553        4.6680580526  CLST         107          1.0000000000
       322       108  TIP3  OH2         -10.4422628233        2.1474364110        9.3743136777  CLST         108          1.0000000000
       323       108  TIP3  H1           -9.4417636649        1.9567623627        9.2732696920  CLST         108          1.0000000000
       324       108  TIP3  H2          -10.7220614499        1.3268552732        9.7885566730  CLST         108          1.0000000000
       325       109  TIP3  OH2           2.3082592568        6.9847259478        8.8139989942  CLST         109          1.0000000000
       326       109  TIP3  H1            1.6861281516        6.4292790077        9.2148023705  CLST         109          1.0000000000
       327       109  TIP3  H2            3.0785952047        6.2436691172        8.7420759395  CLST         109          1.0000000000
       328       110  TIP3  OH2           1.6269721502       12.4630457533      -11.1599805269  CLST         110          1.0000000000
       329       110  TIP3  H1            2.2196415358       13.4829950111      -10.5745465612  CLST         110          1.0000000000
       330       110  TIP3  H2            1.0962166980       11.9129400028       -9.6008924738  CLST         110          1.0000000000
       331       111  TIP3  OH2          11.6887170158      -11.5581872398        9.4633475623  CLST         111          1.0000000000
       332       111  TIP3  H1           12.4478573696      -11.9660141994        9.8415488574  CLST         111          1.0000000000
       333       111  TIP3  H2           11.6153326992      -12.1783601211        8.6638620078  CLST         111          1.0000000000
       334       112  TIP3  OH2           6.3606453540        0.0809551897        1.6093621460  CLST         112          1.0000000000
       335       112  TIP3  H1            6.8407996575        0.9387246138        1.7862030116  CLST         112          1.0000000000
       336       112  TIP3  H2            6.4825841791       -0.3041016418        2.5173965724  CLST         112          1.0000000000
       337       113  TIP3  OH2         -13.0343534826        1.0508885453       -0.0350781595  CLST         113          1.0000000000
       338       113  TIP3  H1          -13.5626606794        0.1651785938       -0.1449574944  CLST         113          1.0000000000
       339       113  TIP3  H2          -12.4154725313        0.8473112445       -0.7762605749  CLST         113          1.0000000000
       340       114  TIP3  OH2         -13.9181538416        3.6280783461       -0.4198794036  CLST         114          1.0000000000
       341       114  TIP3  H1          -13.6951756068        2.7026867210       -0.1373530893  CLST         114          1.0000000000
       342       114  TIP3  H2          -13.4094878917        3.5813187008       -1.3148014437  CLST         114          1.0000000000
       343       115  TIP3  OH2          -8.8788131772        0.2385267353      -10.7728728842  CLST         115          1.0000000000
       344       115  TIP3  H1           -8.0681467710        0.6995050735      -11.1676411840  CLST         115          1.0000000000
       345       115  TIP3  H2           -9.3174295714        1.1018581257      -10.5944684911  CLST         115          1.0000000000
       346       116  TIP3  OH2           6.8519210706       -5.8083080506        2.2042012643  CLST         116          1.0000000000
       347       116  TIP3  H1            7.5793428613       -6.0880073419        1.6018768351  CLST         116          1.0000000000
       348       116  TIP3  H2            7.0118550931       -4.8420164104        2.2126485075  CLST         116          1.0000000000
       349       117  TIP3  OH2          -0.6660213903       -0.1705265818       12.4108990588  CLST         117          1.0000000000
       350       117  TIP3  H1            0.1604380307       -0.8122542869       12.7992532698  CLST         117          1.0000000000
       351       117  TIP3  H2           -0.9225160502        0.3745413293       13.2544432055  CLST         117          1.0000000000
       352       118  TIP3  OH2           0.2145425956       -9.6825748051        5.0339215216  CLST         118          1.0000000000
       353       118  TIP3  H1           -0.1172047828       -9.3445202142        5.9037709158  CLST         118          1.0000000000
       354       118  TIP3  H2            0.0209035807       -8.9495868203        4.4048287206  CLST         118          1.0000000000
       355       119  TIP3  OH2          -9.3364059934      -10.5105715654       -8.7246443240  CLST         119          1.0000000000
       356       119  TIP3  H1           -9.6175503905      -10.9026468927       -9.5835762482  CLST         119          1.0000000000
       357       119  TIP3  H2           -9.0232793665       -9.6500519251       -9.0646602005  CLST         119          1.0000000000
       358       120  TIP3  OH2           9.7394821648       -7.9516561724        1.2869253964  CLST         120          1.0000000000
       359       120  TIP3  H1            8.8983016038       -8.5243556688        1.3603903242  CLST         120          1.0000000000
       360       120  TIP3  H2            9.3424812448       -7.2720464754        0.6903972522  CLST         120          1.0000000000
       361       121  TIP3  OH2          -5.6826661429       -0.1411836155       -8.0598097802  CLST         121          1.0000000000
       362       121  TIP3  H1           -5.6942806216        0.0956866310       -9.0250899487  CLST         121          1.0000000000
       363       121  TIP3  H2           -5.0221472793       -0.8814807443       -8.1161151491  CLST         121          1.0000000000
       364       122  TIP3  OH2          10.4260307296       11.9187487207        5.1792851732  CLST         122          1.0000000000
       365       122  TIP3  H1            9.5107604070       12.3135746808        5.3478842789  CLST         122          1.0000000000
       366       122  TIP3  H2           10.8972058499       12.4633788752        5.8590555904  CLST         122          1.0000000000
       367       123  TIP3  OH2          -7.4043681658       -5.5041241963      -11.1441402246  CLST         123          1.0000000000
       368       123  TIP3  H1           -7.0210243696       -6.3224740820      -11.4420728242  CLST         123          1.0000000000
       369       123  TIP3  H2           -6.9564349417       -5.3379927163      -10.2715157410  CLST         123          1.0000000000
       370       124  TIP3  OH2          -6.1637520078       -8.5298759573      -10.7450563495  CLST         124          1.0000000000
       371       124  TIP3  H1           -5.2997820917       -8.7525385759      -10.2384099830  CLST         124          1.0000000000
       372       124  TIP3  H2           -6.6781303595       -8.2729014424       -9.9518184810  CLST         124          1.0000000000
       373       125  TIP3  OH2         -13.4648300708        4.0381659662        8.0437607330  CLST         125          1.0000000000
       374       125  TIP3  H1          -13.6447065856        3.2657283470        7.5223506150  CLST         125          1.0000000000
       375       125  TIP3  H2          -13.6248139246        4.8256645109        7.3878387678  CLST         125          1.0000000000
       376       126  TIP3  OH2          -6.9452363682      -10.6371316313      -12.1274570806  CLST         126          1.0000000000
       377       126  TIP3  H1           -6.0975811952      -11.0645104986      -11.9698734569  CLST         126          1.0000000000
       378       126  TIP3  H2           -6.8462823095       -9.7514872989      -11.7041627432  CLST         126          1.0000000000
       379       127  TIP3  OH2          -7.5547158375      -11.4997014844       -6.8770851893  CLST         127          1.0000000000
       380       127  TIP3  H1           -8.1054100059      -12.2728226948       -6.6917699740  CLST         127          1.0000000000
       381       127  TIP3  H2           -8.0464985370      -11.1135199618       -7.6559288056  CLST         127          1.0000000000
       382       128  TIP3  OH2          10.1678268454        0.7271193916       -2.4651769047  CLST         128          1.0000000000
       383       128  TIP3  H1            9.3910288262        0.1458923201       -2.3806544843  CLST         128          1.0000000000
       384       128  TIP3  H2            9.8212500960        1.3774004161       -3.1503147568  CLST         128          1.0000000000
       385       129  TIP3  OH2          -7.6947361119        9.6390620959        1.0731279206  CLST         129          1.0000000000
       386       129  TIP3  H1           -6.8128978535       10.0189949979        1.4995434058  CLST         129          1.0000000000
       387       129  TIP3  H2           -7.1470868724        8.8868055833        0.6561009706  CLST         129          1.0000000000
       388       130  TIP3  OH2          -4.0590174106        3.9284703555        9.8274911435  CLST         130          1.0000000000
       389       130  TIP3  H1           -3.5335737850        4.7497183753        9.9516035655  CLST         130          1.0000000000
       390       130  TIP3  H2           -3.6858922729        3.4165484164       10.5950588466  CLST         130          1.0000000000
       391       131  TIP3  OH2           7.8327353580       -3.6923181084       -9.6553420955  CLST         131          1.0000000000
       392       131  TIP3  H1            7.7555871629       -2.8484362226       -9.0444886212  CLST         131          1.0000000000
       393       131  TIP3  H2            6.8497495030       -3.8729235167       -9.6216987789  CLST         131          1.0000000000
       394       132  TIP3  OH2         -11.5255856350       11.4942342306       12.2187443933  CLST         132          1.0000000000
       395       132  TIP3  H1          -10.9922249633       12.2187735353       11.6365804535  CLST         132          1.0000000000
       396       132  TIP3  H2          -12.0656164598       11.6954610454       12.7784734181  CLST         132          1.0000000000
       397       133  TIP3  OH2          10.5124136232        9.4051361956        8.6740702561  CLST         133          1.0000000000
       398       133  TIP3  H1           10.4096835595        9.0121169582        9.5652755485  CLST         133          1.0000000000
       399       133  TIP3  H2           11.4453137489        9.7635457278        8.8231741277  CLST         133          1.0000000000
       400       134  TIP3  OH2          -7.7362073921        5.7906727354       -6.0364249350  CLST         134          1.0000000000
       401       134  TIP3  H1           -8.6470822367        6.0106837207       -5.9846625624  CLST         134          1.0000000000
       402       134  TIP3  H2           -7.4137928808        5.8044551139       -5.0815352401  CLST         134          1.0000000000
       403       135  TIP3  OH2          10.6443498558      -11.1929667399      -13.2034571984  CLST         135          1.0000000000
       404       135  TIP3  H1           10.8225517800      -10.3708853326      -12.6401100990  CLST         135          1.0000000000
       405       135  TIP3  H2           10.6535024114      -10.8107257496      -14.0461721550  CLST         135          1.0000000000
       406       136  TIP3  OH2          -4.3285747781        1.8242060879       -6.9895388986  CLST         136          1.0000000000
       407       136  TIP3  H1           -4.8788603948        1.0589495510       -7.3496461792  CLST         136          1.0000000000
       408       136  TIP3  H2           -5.0036111505        2.3330905355       -6.5053786736  CLST         136          1.0000000000
       409       137  TIP3  OH2          12.8233184538       10.2580243717        9.2048863733  CLST         137          1.0000000000
       410       137  TIP3  H1           13.0093070009       10.2211410061       10.1925286781  CLST         137          1.0000000000
       411       137  TIP3  H2           13.4694724206        9.6170082168        8.9014649357  CLST         137          1.0000000000
       412       138  TIP3  OH2          -0.9518076562       -9.8564536989        1.6266827327  CLST         138          1.0000000000
       413       138  TIP3  H1           -1.2733916973       -9.3137302286        0.8738869885  CLST         138          1.0000000000
       414       138  TIP3  H2           -0.9142781001       -9.1381251542        2.3050705440  CLST         138          1.0000000000
       415       139  TIP3  OH2          -9.7879966850      -10.6718799176        4.6524699520  CLST         139          1.0000000000
       416       139  TIP3  H1          -10.2265999094      -10.6187806529        3.7518913840  CLST         139          1.0000000000
       417       139  TIP3  H2           -9.0849147061      -11.3383176592        4.4148010573  CLST         139          1.0000000000
       418       140  TIP3  OH2          -6.9811910473        3.4386283316       -0.4417737764  CLST         140          1.0000000000
       419       140  TIP3  H1           -6.1455657335        3.8943197682       -0.2197536530  CLST         140          1.0000000000
       420       140  TIP3  H2           -7.6139018275        4.2152384552       -0.4820752245  CLST         140          1.0000000000
       421       141  TIP3  OH2           2.2624910016       -4.4493782526       -3.6650542821  CLST         141          1.0000000000
       422       141  TIP3  H1            1.8730116689       -3.5679960690       -3.4093148325  CLST         141          1.0000000000
       423       141  TIP3  H2            2.9556471625       -4.0778382615       -4.2518792730  CLST         141          1.0000000000
       424       142  TIP3  OH2         -11.6524167388        0.0138093016        4.8383272474  CLST         142          1.0000000000
       425       142  TIP3  H1          -11.4676894698        0.7531568985        5.5356595667  CLST         142          1.0000000000
       426       142  TIP3  H2          -12.4914588952        0.4009064371        4.5074210894  CLST         142          1.0000000000
       427       143  TIP3  OH2           9.5411096874       -5.7721392745       -8.1691212626  CLST         143          1.0000000000
       428       143  TIP3  H1           10.1801680134       -5.1025416811       -8.4607436780  CLST         143          1.0000000000
       429       143  TIP3  H2           10.0396587050       -6.6267302720       -8.2872787088  CLST         143          1.0000000000
       430       144  TIP3  OH2           3.2821063404       -2.8247882587        9.1893328879  CLST         144          1.0000000000
       431       144  TIP3  H1            2.2363046802       -2.2464903571        9.7060551301  CLST         144          1.0000000000
       432       144  TIP3  H2            2.8654756026       -1.7584816184        8.6979526855  CLST         144          1.0000000000
       433       145  TIP3  OH2         -10.2835475328       13.3404170319        3.1410290392  CLST         145          1.0000000000
       434       145  TIP3  H1          -10.6248969742       13.4852649347        2.2005796310  CLST         145          1.0000000000
       435       145  TIP3  H2          -10.0750525633       12.3425196326        2.9362233336  CLST         145          1.0000000000
       436       146  TIP3  OH2           9.2554422570        2.7347975021       -4.4765348510  CLST         146          1.0000000000
       437       146  TIP3  H1            9.1852320644        3.7161189485       -4.3656729633  CLST         146          1.0000000000
       438       146  TIP3  H2            8.3952075226        2.6653973772       -4.9217744759  CLST         146          1.0000000000
       439       147  TIP3  OH2         -11.0452373456       -0.4427697144       -4.1754596916  CLST         147          1.0000000000
       440       147  TIP3  H1          -10.0925087345       -0.7461069294       -4.3360915454  CLST         147          1.0000000000
       441       147  TIP3  H2          -11.3024723430       -0.6798112779       -5.1123748756  CLST         147          1.0000000000
       442       148  TIP3  OH2          -7.8723259306        1.3333066692        9.0159436060  CLST         148          1.0000000000
       443       148  TIP3  H1           -7.8690851513        0.8221038089        8.1575509435  CLST         148          1.0000000000
       444       148  TIP3  H2           -6.8539422805        1.4927072193        9.0211699078  CLST         148          1.0000000000
       445       149  TIP3  OH2           8.6202650570       -2.9569692789        0.7332902137  CLST         149          1.0000000000
       446       149  TIP3  H1            9.1634922783       -2.1953622282        0.5222681834  CLST         149          1.0000000000
       447       149  TIP3  H2            8.4630563321       -2.8108097997        1.7141671658  CLST         149          1.0000000000
       448       150  TIP3  OH2          -2.2088687236      -11.4509139359        8.5561798436  CLST         150          1.0000000000
       449       150  TIP3  H1           -3.0658891262      -11.5651286055        9.0909703970  CLST         150          1.0000000000
       450       150  TIP3  H2           -1.5979362164      -11.7968229427        9.2792184710  CLST         150          1.0000000000
       451       151  TIP3  OH2          -9.1533517936       -6.4817455939       -4.8896478159  CLST         151          1.0000000000
       452       151  TIP3  H1           -8.2612228171       -6.6720291770       -4.4557411291  CLST         151          1.0000000000
       453       151  TIP3  H2           -9.1063492480       -7.2389690292       -5.5352240972  CLST         151          1.0000000000
       454       152  TIP3  OH2           3.8435378421       -1.9871478360        5.0879802217  CLST         152          1.0000000000
       455       152  TIP3  H1            4.1234212150       -2.8892461312        5.2894389924  CLST         152          1.0000000000
       456       152  TIP3  H2            3.5205834779       -2.0657240636        4.1763727927  CLST         152          1.0000000000
       457       153  TIP3  OH2          -2.6803682828        4.8071677246      -14.0775518702  CLST         153          1.0000000000
       458       153  TIP3  H1           -1.7377048612        4.8235141365      -13.9558011183  CLST         153          1.0000000000
       459       153  TIP3  H2           -2.8746897803        4.4014924098      -13.2085482952  CLST         153          1.0000000000
       460       154  TIP3  OH2           4.3959150478       -6.9447510302        2.1238136844  CLST         154          1.0000000000
       461       154  TIP3  H1            5.3903133456       -6.6430675382        2.0918387709  CLST         154          1.0000000000
       462       154  TIP3  H2            4.0122915756       -6.2874102743        1.5263733589  CLST         154          1.0000000000
       463       155  TIP3  OH2           9.2548897917       -2.8007069709       10.0663854228  CLST         155          1.0000000000
       464       155  TIP3  H1            8.5578742618       -3.2662852159        9.5251797726  CLST         155          1.0000000000
       465       155  TIP3  H2            9.9181386755       -3.2984143647       10.3696976944  CLST         155          1.0000000000
       466       156  TIP3  OH2          -2.0006166404       11.4110894279       11.3866003222  CLST         156          1.0000000000
       467       156  TIP3  H1           -2.6369368678       12.1008656886       11.5942260684  CLST         156          1.0000000000
       468       156  TIP3  H2           -2.5028484190       10.7117244558       11.7503428188  CLST         156          1.0000000000
       469       157  TIP3  OH2           3.8004729141       -0.8860766012        7.5017008050  CLST         157          1.0000000000
       470       157  TIP3  H1            4.8175759305       -0.7392029283        7.5627944794  CLST         157          1.0000000000
       471       157  TIP3  H2            3.8945892788       -1.4958262644        6.6068432213  CLST         157          1.0000000000
       472       158  TIP3  OH2          10.6185788446        9.1047497747       13.2284703993  CLST         158          1.0000000000
       473       158  TIP3  H1            9.8675240108        8.5441865262       13.5698652237  CLST         158          1.0000000000
       474       158  TIP3  H2           10.0288962822        9.7104451031       12.7179089934  CLST         158          1.0000000000
       475       159  TIP3  OH2           0.5733776146      -12.1233137855        4.3489864664  CLST         159          1.0000000000
       476       159  TIP3  H1           -0.1349680769      -12.4730978570        4.9586692401  CLST         159          1.0000000000
       477       159  TIP3  H2            0.4702839033      -11.1692845253        4.6587830044  CLST         159          1.0000000000
       478       160  TIP3  OH2           7.2749365672       -3.3925848294        8.4373603765  CLST         160          1.0000000000
       479       160  TIP3  H1            6.6873855492       -3.7020831417        7.6613180154  CLST         160          1.0000000000
       480       160  TIP3  H2            6.8596089669       -2.4692762848        8.4291108369  CLST         160          1.0000000000
       481       161  TIP3  OH2          -2.4902751794       -2.4580069192        7.9184873318  CLST         161          1.0000000000
       482       161  TIP3  H1           -2.0737304905       -1.8440847930        8.6379470051  CLST         161          1.0000000000
       483       161  TIP3  H2           -3.3395510578       -2.6199182057        8.4189139373  CLST         161          1.0000000000
       484       162  TIP3  OH2          -0.6842263705        3.5210675122      -10.7196266720  CLST         162          1.0000000000
       485       162  TIP3  H1           -0.4745508155        3.9599864519      -11.5600440063  CLST         162          1.0000000000
       486       162  TIP3  H2           -0.3058309934        4.1786611284      -10.1376785593  CLST         162          1.0000000000
       487       163  TIP3  OH2         -10.1941489132        9.1055403070       11.2383114053  CLST         163          1.0000000000
       488       163  TIP3  H1          -10.7136538655        8.2734511319       11.3831219256  CLST         163          1.0000000000
       489       163  TIP3  H2          -10.5908142101        9.8330907037       11.7707844886  CLST         163          1.0000000000
       490       164  TIP3  OH2           3.9652648292      -10.5810275059       12.8594299659  CLST         164          1.0000000000
       491       164  TIP3  H1            4.5112932570       -9.8592305672       12.4083031190  CLST         164          1.0000000000
       492       164  TIP3  H2            4.7572157251      -11.1555776971       12.9219525074  CLST         164          1.0000000000
       493       165  TIP3  OH2         -11.9913058136       -5.4301955673        3.4234038609  CLST         165          1.0000000000
       494       165  TIP3  H1          -11.7736462785       -5.6422781414        4.3954862064  CLST         165          1.0000000000
       495       165  TIP3  H2          -12.8375942856       -5.2120288243        3.6155268329  CLST         165          1.0000000000
       496       166  TIP3  OH2          -1.3357569386       -6.3724356142      -10.4812381559  CLST         166          1.0000000000
       497       166  TIP3  H1           -0.3559548080       -6.4337107577      -10.6153863316  CLST         166          1.0000000000
       498       166  TIP3  H2           -1.6462564094       -7.1754456396      -10.0657839310  CLST         166          1.0000000000
       499       167  TIP3  OH2           8.2258539393       10.7038280189       -0.8845372199  CLST         167          1.0000000000
       500       167  TIP3  H1            8.6345650970       10.1900361103       -0.1072973763  CLST         167          1.0000000000
       501       167  TIP3  H2            8.5724024422        9.9880978871       -1.5229560949  CLST         167          1.0000000000
       502       168  TIP3  OH2          -0.7504107303      -13.3489662742        2.1154842223  CLST         168          1.0000000000
       503       168  TIP3  H1           -0.4295506328      -12.9863437383        2.9874053422  CLST         168          1.0000000000
       504       168  TIP3  H2            0.1083115463      -13.6891692273        1.7847462510  CLST         168          1.0000000000
       505       169  TIP3  OH2           5.1496646251        3.9530064010        3.3690202157  CLST         169          1.0000000000
       506       169  TIP3  H1            4.2576797462        3.5680335842        3.4950097560  CLST         169          1.0000000000
       507       169  TIP3  H2            5.0156737435        4.4832029920        2.5546356799  CLST         169          1.0000000000
       508       170  TIP3  OH2          -1.1999656200        4.2077431296        1.5252853913  CLST         170          1.0000000000
       509       170  TIP3  H1           -1.9313327117        4.8715089286        1.4035689358  CLST         170          1.0000000000
       510       170  TIP3  H2           -1.6373553716        3.3549122531        1.5823141232  CLST         170          1.0000000000
       511       171  TIP3  OH2          -3.1423359936        1.2376070537        7.2668392176  CLST         171          1.0000000000
       512       171  TIP3  H1           -2.6606105268        0.8459222839        6.5445498187  CLST         171          1.0000000000
       513       171  TIP3  H2           -2.3898516926        1.5674649348        7.8563774753  CLST         171          1.0000000000
       514       172  TIP3  OH2          -6.5931982741      -13.1278456477        7.9960458735  CLST         172          1.0000000000
       515       172  TIP3  H1           -7.0743542644      -13.8530290435        7.6567684136  CLST         172          1.0000000000
       516       172  TIP3  H2           -5.9017524826      -12.9290982658        7.2878927978  CLST         172          1.0000000000
       517       173  TIP3  OH2          10.1348155386      -12.3714997823        1.7874188900  CLST         173          1.0000000000
       518       173  TIP3  H1           10.4652334389      -12.4032458717        0.2386410217  CLST         173          1.0000000000
       519       173  TIP3  H2            9.2913079084      -12.2007922157        1.7942728480  CLST         173          1.0000000000
       520       174  TIP3  OH2           0.1423671186        5.2733132958        9.9444450112  CLST         174          1.0000000000
       521       174  TIP3  H1           -0.1551587489        4.5974082225       10.6322993630  CLST         174          1.0000000000
       522       174  TIP3  H2           -0.4962790081        5.9993817233       10.0117696439  CLST         174          1.0000000000
       523       175  TIP3  OH2          -5.8462149702       10.4572520635       -3.5462659737  CLST         175          1.0000000000
       524       175  TIP3  H1           -5.2127639518       10.1173561744       -4.2505443228  CLST         175          1.0000000000
       525       175  TIP3  H2           -6.7106740755       10.3350783270       -3.9820811845  CLST         175          1.0000000000
       526       176  TIP3  OH2           6.7826330559        9.1733792954       -7.7955070235  CLST         176          1.0000000000
       527       176  TIP3  H1            7.2266666906        9.9910040265       -8.1678958776  CLST         176          1.0000000000
       528       176  TIP3  H2            6.3947427887        9.5963729473       -6.9785516687  CLST         176          1.0000000000
       529       177  TIP3  OH2          -3.6959276322      -11.3985981246       -1.5918237291  CLST         177          1.0000000000
       530       177  TIP3  H1           -2.9296897566      -11.8617482109       -1.1667695541  CLST         177          1.0000000000
       531       177  TIP3  H2           -4.1990391155      -11.1933785984       -0.7454794308  CLST         177          1.0000000000
       532       178  TIP3  OH2          11.0431777475       -8.9773455809      -11.3538622491  CLST         178          1.0000000000
       533       178  TIP3  H1           11.1776914495       -8.7559428727      -10.3943319058  CLST         178          1.0000000000
       534       178  TIP3  H2           11.0343809082       -8.0680623721      -11.6992588518  CLST         178          1.0000000000
       535       179  TIP3  OH2           6.6426218016       -0.8308548460        8.4856723324  CLST         179          1.0000000000
       536       179  TIP3  H1            6.3137100518       -0.1980366872        9.2120472189  CLST         179          1.0000000000
       537       179  TIP3  H2            7.4555117683       -0.3446650372        8.2363129173  CLST         179          1.0000000000
       538       180  TIP3  OH2          -7.5774125150        8.0857690758        6.0012458679  CLST         180          1.0000000000
       539       180  TIP3  H1           -7.3685090051        8.3504835041        6.9643235422  CLST         180          1.0000000000
       540       180  TIP3  H2           -8.5739759843        8.0321343626        6.0868621530  CLST         180          1.0000000000
       541       181  TIP3  OH2           5.9591659697      -12.9103521387       -0.3577573516  CLST         181          1.0000000000
       542       181  TIP3  H1            6.8499877297      -12.8532594007       -0.8106654286  CLST         181          1.0000000000
       543       181  TIP3  H2            6.1154072458      -13.1179850329        0.5586104033  CLST         181          1.0000000000
       544       182  TIP3  OH2          -1.7183207889       10.3870134519      -10.2568809089  CLST         182          1.0000000000
       545       182  TIP3  H1           -1.0371417147       10.8317858060       -9.7818147910  CLST         182          1.0000000000
       546       182  TIP3  H2           -2.5628539908       10.3303991687       -9.7152382372  CLST         182          1.0000000000
       547       183  TIP3  OH2          -5.4525745934        3.5394933563      -12.4742689193  CLST         183          1.0000000000
       548       183  TIP3  H1           -5.1893454674        3.5181726163      -11.5282501196  CLST         183          1.0000000000
       549       183  TIP3  H2           -6.3970330504        3.1365992825      -12.4340248307  CLST         183          1.0000000000
       550       184  TIP3  OH2           2.9312821507        8.5252672176       -2.4048414535  CLST         184          1.0000000000
       551       184  TIP3  H1            3.1928990108        7.7984699454       -1.7865433195  CLST         184          1.0000000000
       552       184  TIP3  H2            1.9956356261        8.2122805646       -2.5768396309  CLST         184          1.0000000000
       553       185  TIP3  OH2           7.3042869385        4.6142591094       12.1928353032  CLST         185          1.0000000000
       554       185  TIP3  H1            7.6005965709        3.6879179864       12.0704668744  CLST         185          1.0000000000
       555       185  TIP3  H2            6.7579194697        4.7216878199       13.0056094701  CLST         185          1.0000000000
       556       186  TIP3  OH2           3.6997180964        5.9287964391       -5.0737577458  CLST         186          1.0000000000
       557       186  TIP3  H1            3.8831245531        6.9082139986       -4.9469040557  CLST         186          1.0000000000
       558       186  TIP3  H2            3.8655116270        5.8775033954       -6.0189414101  CLST         186          1.0000000000
       559       187  TIP3  OH2           4.0519434245        1.5567061511       -5.6059551487  CLST         187          1.0000000000
       560       187  TIP3  H1            4.1460542940        1.5180903479       -4.6314730719  CLST         187          1.0000000000
       561       187  TIP3  H2            3.5933396200        0.6613600386       -5.6864541553  CLST         187          1.0000000000
       562       188  TIP3  OH2          -4.6134855809       -1.7314296697        4.8022541575  CLST         188          1.0000000000
       563       188  TIP3  H1           -4.7469080537       -0.8759473212        4.2819384394  CLST         188          1.0000000000
       564       188  TIP3  H2           -4.8357207493       -1.3465554483        5.7042872298  CLST         188          1.0000000000
       565       189  TIP3  OH2          -5.2676974155        3.5522624560      -15.1477202291  CLST         189          1.0000000000
       566       189  TIP3  H1           -5.3281798856        3.2249973632      -14.2263146355  CLST         189          1.0000000000
       567       189  TIP3  H2           -4.4604215087        4.0613598099      -14.9795976758  CLST         189          1.0000000000
       568       190  TIP3  OH2           7.0635264800       -5.7789379355        5.2254500765  CLST         190          1.0000000000
       569       190  TIP3  H1            6.8249294827       -5.6886256228        4.2716480872  CLST         190          1.0000000000
       570       190  TIP3  H2            8.0158539477       -5.5977388370        5.0663396272  CLST         190          1.0000000000
       571       191  TIP3  OH2         -11.0561346448       -4.7316656699       -6.3163118623  CLST         191          1.0000000000
       572       191  TIP3  H1          -10.4265446007       -4.5282654761       -7.0392008364  CLST         191          1.0000000000
       573       191  TIP3  H2          -10.4232084833       -5.2940564612       -5.7365081125  CLST         191          1.0000000000
       574       192  TIP3  OH2           8.7628296178       14.3024877080        2.0131132727  CLST         192          1.0000000000
       575       192  TIP3  H1            8.0036963100       14.3902551679        2.5966200385  CLST         192          1.0000000000
       576       192  TIP3  H2            8.7564508136       15.1684926431        1.6429985167  CLST         192          1.0000000000
       577       193  TIP3  OH2           6.1000707516      -12.0423098564       11.5506211979  CLST         193          1.0000000000
       578       193  TIP3  H1            6.8587106773      -12.6861561424       11.4781197546  CLST         193          1.0000000000
       579       193  TIP3  H2            6.1072134103      -11.5289136120       10.7337782534  CLST         193          1.0000000000
       580       194  TIP3  OH2          -6.3524520684       -4.6384762495       11.1191643744  CLST         194          1.0000000000
       581       194  TIP3  H1           -6.8483277055       -4.6375022133       11.9311906259  CLST         194          1.0000000000
       582       194  TIP3  H2           -7.0444708913       -4.7615014932       10.4542762442  CLST         194          1.0000000000
       583       195  TIP3  OH2          -7.5568857847        9.1273669371       10.3879523625  CLST         195          1.0000000000
       584       195  TIP3  H1           -8.5271341384        9.1040451601       10.6617469468  CLST         195          1.0000000000
       585       195  TIP3  H2           -7.3716727535        8.2222493953       10.0631836199  CLST         195          1.0000000000
       586       196  TIP3  OH2           6.0255794746      -12.4862245290       -6.0019623917  CLST         196          1.0000000000
       587       196  TIP3  H1            6.4356500415      -11.6715810693       -6.2163949559  CLST         196          1.0000000000
       588       196  TIP3  H2            5.1926620527      -12.0878380329       -5.6415343846  CLST         196          1.0000000000
       589       197  TIP3  OH2           2.2604731811       -9.2670490387       -2.8514210687  CLST         197          1.0000000000
       590       197  TIP3  H1            1.9324951528       -8.3681353851       -2.4787625966  CLST         197          1.0000000000
       591       197  TIP3  H2            3.1087392311       -8.9640275306       -3.0807462017  CLST         197          1.0000000000
       592       198  TIP3  OH2          10.8243440150        2.0234675271        4.7212088934  CLST         198          1.0000000000
       593       198  TIP3  H1           10.1329433269        1.5754808527        4.2780757676  CLST         198          1.0000000000
       594       198  TIP3  H2           10.5742128268        2.9319837099        4.3818088791  CLST         198          1.0000000000
       595       199  TIP3  OH2           0.0847114093        8.4352107040       -5.8442374240  CLST         199          1.0000000000
       596       199  TIP3  H1           -0.6781601446        8.7781706643       -5.3726184739  CLST         199          1.0000000000
       597       199  TIP3  H2           -0.0917079756        7.4472056322       -5.7615665748  CLST         199          1.0000000000
       598       200  TIP3  OH2          -7.5549775141       11.7909822774       10.8259824311  CLST         200          1.0000000000
       599       200  TIP3  H1           -7.5476312750       10.8077503130       10.5274640346  CLST         200          1.0000000000
       600       200  TIP3  H2           -7.0292591204       12.1213833968       10.0275867462  CLST         200          1.0000000000
       601       201  TIP3  OH2           4.7109070367        1.0607838611       -0.1157591615  CLST         201          1.0000000000
       602       201  TIP3  H1            4.0757143490        1.3630242520        0.5289161785  CLST         201          1.0000000000
       603       201  TIP3  H2            5.2682177475        0.5240549983        0.5454014931  CLST         201          1.0000000000
       604       202  TIP3  OH2          -2.0061859416       -4.4493956248      -12.3043583064  CLST         202          1.0000000000
       605       202  TIP3  H1           -1.9050671315       -5.1475305831      -11.6005937612  CLST         202          1.0000000000
       606       202  TIP3  H2           -2.4186506106       -3.7320955786      -11.7526776543  CLST         202          1.0000000000
       607       203  TIP3  OH2          -0.7140816834       11.3041892604        7.5959044697  CLST         203          1.0000000000
       608       203  TIP3  H1            0.1131546398       10.9340605655        7.9313307220  CLST         203          1.0000000000
       609       203  TIP3  H2           -1.3241306434       10.7399421666        8.1208923574  CLST         203          1.0000000000
       610       204  TIP3  OH2          -5.4325883416        6.4426959110      -13.1872774897  CLST         204          1.0000000000
       611       204  TIP3  H1           -4.7950094135        6.4598893839      -13.9048635836  CLST         204          1.0000000000
       612       204  TIP3  H2           -5.6135398032        5.4565058582      -13.1759522458  CLST         204          1.0000000000
       613       205  TIP3  OH2          -2.3755377692        7.2442549418       -2.6043001167  CLST         205          1.0000000000
       614       205  TIP3  H1           -2.2966614596        7.9750659941       -3.3060025736  CLST         205          1.0000000000
       615       205  TIP3  H2           -1.4407696811        7.0291778367       -2.4057645914  CLST         205          1.0000000000
       616       206  TIP3  OH2           4.9245134289      -11.0922831331       -9.6842199144  CLST         206          1.0000000000
       617       206  TIP3  H1            4.8655120396      -12.0625962955       -9.2908774113  CLST         206          1.0000000000
       618       206  TIP3  H2            5.6639188874      -10.7959251985       -9.0282684123  CLST         206          1.0000000000
       619       207  TIP3  OH2          12.7878483439       10.2445852393       12.0999798346  CLST         207          1.0000000000
       620       207  TIP3  H1           12.0115081101        9.7821079338       12.5087082815  CLST         207          1.0000000000
       621       207  TIP3  H2           13.4202323241       10.0790187474       12.6906762838  CLST         207          1.0000000000
       622       208  TIP3  OH2         -11.5798285579        1.9731044808        6.6760221293  CLST         208          1.0000000000
       623       208  TIP3  H1          -11.2400868455        2.0522304123        7.5876085331  CLST         208          1.0000000000
       624       208  TIP3  H2          -11.3837314175        2.9057362340        6.3888626731  CLST         208          1.0000000000
       625       209  TIP3  OH2           4.4832588861       -9.3864220201        7.4054343625  CLST         209          1.0000000000
       626       209  TIP3  H1            4.0965837814       -9.5913397577        6.4878670334  CLST         209          1.0000000000
       627       209  TIP3  H2            3.7187671088       -8.7898458651        7.6807610122  CLST         209          1.0000000000
       628       210  TIP3  OH2          11.9846003435      -10.9510912789        5.2130801674  CLST         210          1.0000000000
       629       210  TIP3  H1           13.0109759121      -11.0852419127        4.1248677857  CLST         210          1.0000000000
       630       210  TIP3  H2           12.4275235818      -10.2389120874        5.1114965614  CLST         210          1.0000000000
       631       211  TIP3  OH2          -0.3425242162       -9.3788203014       12.1720979998  CLST         211          1.0000000000
       632       211  TIP3  H1            0.2875345107       -9.9063163058       12.6617114246  CLST         211          1.0000000000
       633       211  TIP3  H2           -1.1336913734       -9.9618024866       12.0250703127  CLST         211          1.0000000000
       634       212  TIP3  OH2         -12.4371054647        3.3591630810       -2.4955182582  CLST         212          1.0000000000
       635       212  TIP3  H1          -11.8413978339        4.0307426901       -2.8667191582  CLST         212          1.0000000000
       636       212  TIP3  H2          -11.8361099596        2.5593143400       -2.2964831001  CLST         212          1.0000000000
       637       213  TIP3  OH2          -9.3726884041      -11.4396835062      -11.4954534788  CLST         213          1.0000000000
       638       213  TIP3  H1           -9.5700284338      -12.0333472133      -12.0975133513  CLST         213          1.0000000000
       639       213  TIP3  H2           -8.4403667563      -11.1697610059      -11.8478854426  CLST         213          1.0000000000
       640       214  TIP3  OH2          -6.3640753925        2.3096102223       -5.4690189954  CLST         214          1.0000000000
       641       214  TIP3  H1           -6.2300315355        1.4452416753       -5.0029092586  CLST         214          1.0000000000
       642       214  TIP3  H2           -7.0482329059        2.6603894303       -4.8441489844  CLST         214          1.0000000000
       643       215  TIP3  OH2         -11.8228735871      -12.7042751479        5.5757317751  CLST         215          1.0000000000
       644       215  TIP3  H1          -11.0676589686      -12.0866656792        5.2123668331  CLST         215          1.0000000000
       645       215  TIP3  H2          -11.7929314676      -13.0521933311        4.5648082058  CLST         215          1.0000000000
       646       216  TIP3  OH2         -11.7402821275       -2.2621691596        8.2505583374  CLST         216          1.0000000000
       647       216  TIP3  H1          -10.7820730860       -1.9072784059        8.3516119197  CLST         216          1.0000000000
       648       216  TIP3  H2          -11.5322784905       -3.2138089158        8.4065729280  CLST         216          1.0000000000
       649       217  TIP3  OH2           7.6027711931       -0.4435686109       -1.6264318735  CLST         217          1.0000000000
       650       217  TIP3  H1            7.7996076849       -1.3133742531       -2.0033635720  CLST         217          1.0000000000
       651       217  TIP3  H2            7.0153560579       -0.6263025968       -0.8473244546  CLST         217          1.0000000000
       652       218  TIP3  OH2          -8.3222787934       -3.9757767435        9.2174241369  CLST         218          1.0000000000
       653       218  TIP3  H1           -8.5860572895       -3.0467477285        8.9225280611  CLST         218          1.0000000000
       654       218  TIP3  H2           -7.7373520566       -4.2309502904        8.4894664134  CLST         218          1.0000000000
       655       219  TIP3  OH2         -12.6179303353       -4.5495184751       -2.7353376799  CLST         219          1.0000000000
       656       219  TIP3  H1          -12.7003844048       -3.5740616137       -2.7904557698  CLST         219          1.0000000000
       657       219  TIP3  H2          -12.7000751446       -4.6772102713       -3.6905351721  CLST         219          1.0000000000
       658       220  TIP3  OH2           6.3237809491        6.7669201882        7.7638598555  CLST         220          1.0000000000
       659       220  TIP3  H1            5.7622533298        6.7617579891        6.9492295145  CLST         220          1.0000000000
       660       220  TIP3  H2            5.6040184272        6.1292519286        8.2200734188  CLST         220          1.0000000000
       661       221  TIP3  OH2         -10.3076659500       -7.1913748433       10.1231929797  CLST         221          1.0000000000
       662       221  TIP3  H1           -9.3916553524       -7.4083292674       10.2938664940  CLST         221          1.0000000000
       663       221  TIP3  H2          -10.6609723397       -8.1216343916        9.8426910424  CLST         221          1.0000000000
       664       222  TIP3  OH2          -6.9724268219       -0.7758978520      -13.6128383768  CLST         222          1.0000000000
       665       222  TIP3  H1           -6.3768354055       -1.5942152521      -13.4078849268  CLST         222          1.0000000000
       666       222  TIP3  H2           -7.8923390525       -1.1041623777      -13.5420509609  CLST         222          1.0000000000
       667       223  TIP3  OH2           2.5934593731      -10.6434222647      -11.7643205807  CLST         223          1.0000000000
       668       223  TIP3  H1            2.0215034573      -11.4025523644      -11.4834816599  CLST         223          1.0000000000
       669       223  TIP3  H2            3.3921616487      -10.8774673881      -11.1879544946  CLST         223          1.0000000000
       670       224  TIP3  OH2           7.5520231904        4.7074665315        0.5028641419  CLST         224          1.0000000000
       671       224  TIP3  H1            8.3017494660        5.3636765977        0.5955347640  CLST         224          1.0000000000
       672       224  TIP3  H2            7.4958860957        4.3323434224       -0.4303862278  CLST         224          1.0000000000
       673       225  TIP3  OH2          -0.2552221862        4.6533161192       -1.3411456228  CLST         225          1.0000000000
       674       225  TIP3  H1           -0.3738734180        4.5429218734       -0.3561107743  CLST         225          1.0000000000
       675       225  TIP3  H2           -0.2567026241        3.6840011984       -1.4935349514  CLST         225          1.0000000000
       676       226  TIP3  OH2          -5.8829837855       -4.4185682067        7.6265040997  CLST         226          1.0000000000
       677       226  TIP3  H1           -5.6873505986       -5.3256629477        7.9092755970  CLST         226          1.0000000000
       678       226  TIP3  H2           -5.6887254684       -4.5060945460        6.6702202775  CLST         226          1.0000000000
       679       227  TIP3  OH2          11.6645552056       -4.1708995694       -9.7313634195  CLST         227          1.0000000000
       680       227  TIP3  H1           11.8405066112       -3.5770277547       -8.8871043495  CLST         227          1.0000000000
       681       227  TIP3  H2           11.3054289755       -3.5647575964      -10.3744385227  CLST         227          1.0000000000
       682       228  TIP3  OH2           3.5030255454       12.3665410644        3.2891948691  CLST         228          1.0000000000
       683       228  TIP3  H1            2.6968325418       11.9745111709        3.8103661234  CLST         228          1.0000000000
       684       228  TIP3  H2            3.2235278361       12.3079959639        2.4577322776  CLST         228          1.0000000000
       685       229  TIP3  OH2         -11.4925868173      -13.0573471553        2.9463485788  CLST         229          1.0000000000
       686       229  TIP3  H1          -11.6402730789      -13.0583978180        2.1084774141  CLST         229          1.0000000000
       687       229  TIP3  H2          -11.2285451955      -11.7588887763        1.9933143442  CLST         229          1.0000000000
       688       230  TIP3  OH2          12.2417343695        6.4218743328       -3.4687495633  CLST         230          1.0000000000
       689       230  TIP3  H1           13.1700838662        6.0950943568       -3.4198545831  CLST         230          1.0000000000
       690       230  TIP3  H2           11.8290055032        5.5309772497       -3.3561316307  CLST         230          1.0000000000
       691       231  TIP3  OH2           7.1435890010        3.4419175726        4.8528441509  CLST         231          1.0000000000
       692       231  TIP3  H1            7.5812634689        4.3237196102        4.8625058505  CLST         231          1.0000000000
       693       231  TIP3  H2            6.2703418244        3.7767116452        4.5045230146  CLST         231          1.0000000000
       694       232  TIP3  OH2         -10.3422380549        9.0178388840        7.4582555046  CLST         232          1.0000000000
       695       232  TIP3  H1          -10.8612301689        9.5693359837        8.1068438013  CLST         232          1.0000000000
       696       232  TIP3  H2          -10.3295167132        8.1261604109        7.9014746380  CLST         232          1.0000000000
       697       233  TIP3  OH2           3.5979665861       -4.7494722666        8.7517380577  CLST         233          1.0000000000
       698       233  TIP3  H1            4.1161164065       -5.0767601190        9.4060385290  CLST         233          1.0000000000
       699       233  TIP3  H2            3.4911583888       -3.7931629877        9.0897781581  CLST         233          1.0000000000
       700       234  TIP3  OH2          -3.6581935117        8.5390999166       -0.6333152844  CLST         234          1.0000000000
       701       234  TIP3  H1           -3.1319464093        8.4177886766       -1.4800603544  CLST         234          1.0000000000
       702       234  TIP3  H2           -3.5846017495        9.6366090105       -0.8038401014  CLST         234          1.0000000000
       703       235  TIP3  OH2          -1.9142210712       -4.0429377232       -9.1450008130  CLST         235          1.0000000000
       704       235  TIP3  H1           -1.7127896623       -4.9165335361       -9.5667199503  CLST         235          1.0000000000
       705       235  TIP3  H2           -0.9488146490       -3.7913743535       -9.0887773124  CLST         235          1.0000000000
       706       236  TIP3  OH2          -0.4731569752      -13.4334579191       -2.9212130796  CLST         236          1.0000000000
       707       236  TIP3  H1            0.2557056224      -12.8440756224       -2.5882212662  CLST         236          1.0000000000
       708       236  TIP3  H2           -0.9573980733      -13.3076385442       -2.0549913559  CLST         236          1.0000000000
       709       237  TIP3  OH2          -2.9659353096       -5.0902974849       10.8929761316  CLST         237          1.0000000000
       710       237  TIP3  H1           -3.8068743729       -4.7268713851       11.2261824426  CLST         237          1.0000000000
       711       237  TIP3  H2           -3.3997060405       -5.6156890186       10.1746517560  CLST         237          1.0000000000
       712       238  TIP3  OH2           0.6355669215        4.7263733394        7.1933900498  CLST         238          1.0000000000
       713       238  TIP3  H1            0.0386611506        5.3186217053        6.6964564125  CLST         238          1.0000000000
       714       238  TIP3  H2            0.5873754882        5.0432644076        8.1015064674  CLST         238          1.0000000000
       715       239  TIP3  OH2         -14.1281641090        5.9840256982        3.6048650810  CLST         239          1.0000000000
       716       239  TIP3  H1          -14.2153280529        6.4955838128        2.7705059819  CLST         239          1.0000000000
       717       239  TIP3  H2          -13.4082485487        5.4020561677        3.2963959104  CLST         239          1.0000000000
       718       240  TIP3  OH2         -13.9529673954        8.9662093508       -0.2288935780  CLST         240          1.0000000000
       719       240  TIP3  H1          -14.5580509139        9.1805195445        0.4834493774  CLST         240          1.0000000000
       720       240  TIP3  H2          -13.8276031657        7.8749637789       -0.0289431583  CLST         240          1.0000000000
       721       241  TIP3  OH2          -7.6400107432       -7.7579913686       -8.6321094154  CLST         241          1.0000000000
       722       241  TIP3  H1           -8.0155442340       -8.0009526307       -7.7524904122  CLST         241          1.0000000000
       723       241  TIP3  H2           -7.5534672456       -6.7825731209       -8.4930808383  CLST         241          1.0000000000
       724       242  TIP3  OH2           6.2590880725       -5.4950661190        9.7062606401  CLST         242          1.0000000000
       725       242  TIP3  H1            6.3805548909       -4.7047410889        9.1384288957  CLST         242          1.0000000000
       726       242  TIP3  H2            6.7680791070       -6.1778212323        9.2399238900  CLST         242          1.0000000000
       727       243  TIP3  OH2          -6.6358715092       -7.2240162498       -4.2424876285  CLST         243          1.0000000000
       728       243  TIP3  H1           -6.3006982307       -7.8229745705       -4.9577326471  CLST         243          1.0000000000
       729       243  TIP3  H2           -6.3664964964       -7.8404988516       -3.5234972827  CLST         243          1.0000000000
       730       244  TIP3  OH2           4.8829550758        5.8402301227        5.4875595610  CLST         244          1.0000000000
       731       244  TIP3  H1            4.9972477211        5.5250924381        4.5833109560  CLST         244          1.0000000000
       732       244  TIP3  H2            4.2739684826        5.1063551635        5.7993196256  CLST         244          1.0000000000
       733       245  TIP3  OH2          -7.1102432159        3.6134260940       -7.8031207224  CLST         245          1.0000000000
       734       245  TIP3  H1           -7.0629077863        2.9995607425       -7.0047136374  CLST         245          1.0000000000
       735       245  TIP3  H2           -7.3813827397        4.3592685049       -7.2178235957  CLST         245          1.0000000000
       736       246  TIP3  OH2           2.1032004106       -6.7319510411       -2.0668999991  CLST         246          1.0000000000
       737       246  TIP3  H1            1.8653493934       -6.0876361057       -2.7432642784  CLST         246          1.0000000000
       738       246  TIP3  H2            3.0751662037       -6.5898586003       -2.0139904925  CLST         246          1.0000000000
       739       247  TIP3  OH2           6.0055812034        8.0545332917        0.6293189173  CLST         247          1.0000000000
       740       247  TIP3  H1            6.5007600321        7.8808913107       -0.1917687241  CLST         247          1.0000000000
       741       247  TIP3  H2            5.5088956921        8.9034187307        0.4496547318  CLST         247          1.0000000000
       742       248  TIP3  OH2          -2.3949049062        8.3632174409      -11.8905925373  CLST         248          1.0000000000
       743       248  TIP3  H1           -2.2467400020        8.9576887396      -12.6907604933  CLST         248          1.0000000000
       744       248  TIP3  H2           -1.9213039467        8.9835034655      -11.2809938961  CLST         248          1.0000000000
       745       249  TIP3  OH2           8.8499214688        4.8876133158       -7.6753822090  CLST         249          1.0000000000
       746       249  TIP3  H1            8.0836948022        5.4533759632       -7.3945594819  CLST         249          1.0000000000
       747       249  TIP3  H2            8.6499647520        3.9962125526       -7.2913362236  CLST         249          1.0000000000
       748       250  TIP3  OH2          -7.6872996141        9.6992865692       -5.5432087877  CLST         250          1.0000000000
       749       250  TIP3  H1           -7.0635008866        9.1874205433       -6.0835212677  CLST         250          1.0000000000
       750       250  TIP3  H2           -7.8107544498       10.4391784190       -6.2294233192  CLST         250          1.0000000000
       751       251  TIP3  OH2          -3.4942499212       12.4477943979        3.0542904531  CLST         251          1.0000000000
       752       251  TIP3  H1           -3.2875479648       13.2692715389        2.9529736418  CLST         251          1.0000000000
       753       251  TIP3  H2           -2.9485634147       12.2122440728        3.8299697571  CLST         251          1.0000000000
       754       252  TIP3  OH2           5.9153541853        5.3123589586       14.4540816924  CLST         252          1.0000000000
       755       252  TIP3  H1            5.6483252711        6.2768000382       14.3967145136  CLST         252          1.0000000000
       756       252  TIP3  H2            6.0048038971        5.1434476696       15.3563557808  CLST         252          1.0000000000
       757       253  TIP3  OH2           6.1184552463       14.0529960085        3.2984318840  CLST         253          1.0000000000
       758       253  TIP3  H1            5.2059778894       13.9242360046        3.5671173393  CLST         253          1.0000000000
       759       253  TIP3  H2            5.9899269674       13.5120309278        2.4982708206  CLST         253          1.0000000000
       760       254  TIP3  OH2          -4.1545771873        8.0734185655        3.1646528596  CLST         254          1.0000000000
       761       254  TIP3  H1           -4.6806772991        8.6774923671        2.5915510233  CLST         254          1.0000000000
       762       254  TIP3  H2           -4.8205524299        7.4240538457        3.5061036180  CLST         254          1.0000000000
       763       255  TIP3  OH2          -7.0045233135       10.5348225803        4.3766025286  CLST         255          1.0000000000
       764       255  TIP3  H1           -7.9715693064       10.7663794026        4.2550021371  CLST         255          1.0000000000
       765       255  TIP3  H2           -7.0887158929        9.6989353951        4.8989856956  CLST         255          1.0000000000
       766       256  TIP3  OH2          11.5702243266        3.6809618825       -1.4242392293  CLST         256          1.0000000000
       767       256  TIP3  H1           11.9401900545        2.8060641599       -1.7586191466  CLST         256          1.0000000000
       768       256  TIP3  H2           11.3280872329        3.4508600074       -0.4895077723  CLST         256          1.0000000000
       769       257  TIP3  OH2          -8.5390562300       -1.1755765647       -5.0007389673  CLST         257          1.0000000000
       770       257  TIP3  H1           -7.6865388283       -0.8029054780       -4.6510561639  CLST         257          1.0000000000
       771       257  TIP3  H2           -8.4493490988       -1.0410553818       -5.9509196039  CLST         257          1.0000000000
       772       258  TIP3  OH2          -5.3691029217       10.3399628299        7.8104852085  CLST         258          1.0000000000
       773       258  TIP3  H1           -5.1287463346       10.8994757845        7.0288341457  CLST         258          1.0000000000
       774       258  TIP3  H2           -6.1898261597       10.8945731284        8.0054484151  CLST         258          1.0000000000
       775       259  TIP3  OH2          10.1392337285        6.0406409630        0.6911250764  CLST         259          1.0000000000
       776       259  TIP3  H1           11.1527806068        6.4726741152        0.5891160435  CLST         259          1.0000000000
       777       259  TIP3  H2            9.8938650216        6.6288944920        1.3884816348  CLST         259          1.0000000000
       778       260  TIP3  OH2          -5.1071102925        7.7202174481        9.0847957750  CLST         260          1.0000000000
       779       260  TIP3  H1           -5.0713891796        8.5458680866        8.5387333217  CLST         260          1.0000000000
       780       260  TIP3  H2           -5.8717985486        7.3065777337        8.6142009492  CLST         260          1.0000000000
       781       261  TIP3  OH2           0.4452959704       -4.2595043795       12.0759968637  CLST         261          1.0000000000
       782       261  TIP3  H1            1.0040682681       -5.3354553956       12.2858425129  CLST         261          1.0000000000
       783       261  TIP3  H2            1.4932862584       -4.5826835916       12.5715053774  CLST         261          1.0000000000
       784       262  TIP3  OH2         -10.9166855940        4.8285183692        6.0526526932  CLST         262          1.0000000000
       785       262  TIP3  H1          -10.0970475689        4.5703574940        5.3300014736  CLST         262          1.0000000000
       786       262  TIP3  H2          -11.4890035374        5.1916693881        5.3831137613  CLST         262          1.0000000000
       787       263  TIP3  OH2           1.8576521706        0.9900996367        6.5796761457  CLST         263          1.0000000000
       788       263  TIP3  H1            2.5052128228        1.6892521806        6.5887471469  CLST         263          1.0000000000
       789       263  TIP3  H2            2.3952219338        0.1850836436        6.8093366214  CLST         263          1.0000000000
       790       264  TIP3  OH2           5.1693880705       -4.4735457911       -9.7152917926  CLST         264          1.0000000000
       791       264  TIP3  H1            5.0908021807       -5.4172346029       -9.8451645354  CLST         264          1.0000000000
       792       264  TIP3  H2            4.2615518098       -4.3147661673      -10.1368852670  CLST         264          1.0000000000
       793       265  TIP3  OH2           7.5203801884        4.9611090939      -10.2121484743  CLST         265          1.0000000000
       794       265  TIP3  H1            7.7028808685        5.8895508686      -10.5108023453  CLST         265          1.0000000000
       795       265  TIP3  H2            8.3064434431        4.8930075748       -9.5904879782  CLST         265          1.0000000000
       796       266  TIP3  OH2          -8.0321991469       -8.4743565890       -0.0540838664  CLST         266          1.0000000000
       797       266  TIP3  H1           -8.0073378958       -8.5132854401        0.9344808257  CLST         266          1.0000000000
       798       266  TIP3  H2           -8.2142598404       -7.5185486919       -0.1643220223  CLST         266          1.0000000000
       799       267  TIP3  OH2           1.2371117737        2.5712898177       -5.1394785204  CLST         267          1.0000000000
       800       267  TIP3  H1            1.3419241506        3.3868692151       -4.6236225751  CLST         267          1.0000000000
       801       267  TIP3  H2            2.1771451201        2.2666570105       -5.0514132448  CLST         267          1.0000000000
       802       268  TIP3  OH2           5.0782313930       -4.6863790729       -6.8854199731  CLST         268          1.0000000000
       803       268  TIP3  H1            5.0180387083       -4.4144864292       -7.8245711668  CLST         268          1.0000000000
       804       268  TIP3  H2            4.7401740203       -5.6018160012       -6.9661559077  CLST         268          1.0000000000
       805       269  TIP3  OH2           5.5520426542       10.7700442963       -0.1826950521  CLST         269          1.0000000000
       806       269  TIP3  H1            6.4684913213       10.7213403134       -0.5371727931  CLST         269          1.0000000000
       807       269  TIP3  H2            5.7880517543       11.6162388497        0.3191826302  CLST         269          1.0000000000
       808       270  TIP3  OH2           1.0732119343        9.3763697828       -8.1256183550  CLST         270          1.0000000000
       809       270  TIP3  H1            0.7985429069        8.6623551352       -8.7245580199  CLST         270          1.0000000000
       810       270  TIP3  H2            0.7559865416        8.9380855977       -7.2625496053  CLST         270          1.0000000000
       811       271  TIP3  OH2          -6.4097182760       -9.1173116026       -2.1828792584  CLST         271          1.0000000000
       812       271  TIP3  H1           -5.5553230058       -9.0410218973       -1.7205965298  CLST         271          1.0000000000
       813       271  TIP3  H2           -6.9546641069       -8.9982552406       -1.3280882494  CLST         271          1.0000000000
       814       272  TIP3  OH2           9.4141906037       -8.2265916118        5.8637810377  CLST         272          1.0000000000
       815       272  TIP3  H1            8.4712820444       -8.2552613589        6.1012343573  CLST         272          1.0000000000
       816       272  TIP3  H2            9.4065417493       -7.6188615599        5.0760605001  CLST         272          1.0000000000
       817       273  TIP3  OH2         -13.9142185775        9.5780973838        2.8597290478  CLST         273          1.0000000000
       818       273  TIP3  H1          -13.7164509365        9.6736885884        4.1080443584  CLST         273          1.0000000000
       819       273  TIP3  H2          -13.7401572902        8.5335309454        4.3508711877  CLST         273          1.0000000000
       820       274  TIP3  OH2           3.9814155472       12.8456251414       -4.1226269955  CLST         274          1.0000000000
       821       274  TIP3  H1            3.8769664051       11.6650075903       -2.8141387255  CLST         274          1.0000000000
       822       274  TIP3  H2            3.5037388386       13.0347934153       -3.4020527967  CLST         274          1.0000000000
       823       275  TIP3  OH2           8.7454455685      -11.2306748346        5.9694718131  CLST         275          1.0000000000
       824       275  TIP3  H1            9.3506034930      -10.4535021780        5.7483385888  CLST         275          1.0000000000
       825       275  TIP3  H2            9.3133439116      -11.9316967448        5.5271488089  CLST         275          1.0000000000
       826       276  TIP3  OH2          -0.2277556495       -5.9470201313        1.3787231100  CLST         276          1.0000000000
       827       276  TIP3  H1           -0.8096050248       -6.1839692941        0.6142637219  CLST         276          1.0000000000
       828       276  TIP3  H2           -0.8435228017       -5.2674729436        1.9556093968  CLST         276          1.0000000000
       829       277  TIP3  OH2           6.5162892111        6.3700578083       -6.9665023078  CLST         277          1.0000000000
       830       277  TIP3  H1            5.6633623281        5.9898140623       -7.2568586951  CLST         277          1.0000000000
       831       277  TIP3  H2            6.4696497619        7.2326467801       -7.4309944559  CLST         277          1.0000000000
       832       278  TIP3  OH2          -0.4649916773       -7.6563311816        3.4355563210  CLST         278          1.0000000000
       833       278  TIP3  H1           -0.1988620486       -7.0736119527        2.6481289911  CLST         278          1.0000000000
       834       278  TIP3  H2           -0.7324284002       -6.9319782296        4.0570118246  CLST         278          1.0000000000
       835       279  TIP3  OH2         -13.6656483034        6.3641595468        0.5244041705  CLST         279          1.0000000000
       836       279  TIP3  H1          -13.7209962273        5.4038644495        0.2314423227  CLST         279          1.0000000000
       837       279  TIP3  H2          -12.7032428844        6.3935189467        0.7673440485  CLST         279          1.0000000000
       838       280  TIP3  OH2          -3.5016498263      -10.0637157646        5.6930908138  CLST         280          1.0000000000
       839       280  TIP3  H1           -3.0050433030       -9.3673604768        6.1675117788  CLST         280          1.0000000000
       840       280  TIP3  H2           -4.0229959454       -9.4650329284        5.1339669707  CLST         280          1.0000000000
       841       281  TIP3  OH2           8.0925301534        7.7427510171      -10.7065114244  CLST         281          1.0000000000
       842       281  TIP3  H1            8.4241776211        8.6207974314      -10.5612070997  CLST         281          1.0000000000
       843       281  TIP3  H2            7.0997525328        7.9001307854      -10.7273271215  CLST         281          1.0000000000
       844       282  TIP3  OH2          -7.7221079376      -11.7953194640        9.9459382043  CLST         282          1.0000000000
       845       282  TIP3  H1           -8.4326535659      -11.3718073536        9.4254348246  CLST         282          1.0000000000
       846       282  TIP3  H2           -7.3163988107      -12.3116872664        9.1757671224  CLST         282          1.0000000000
       847       283  TIP3  OH2           4.4620664988        8.6396248291       -4.7574958586  CLST         283          1.0000000000
       848       283  TIP3  H1            4.6398542627        9.5761066588       -4.9800373921  CLST         283          1.0000000000
       849       283  TIP3  H2            3.8502212867        8.7559091962       -3.9134989874  CLST         283          1.0000000000
       850       284  TIP3  OH2          12.0846627128        8.3452359601       -1.3605781518  CLST         284          1.0000000000
       851       284  TIP3  H1           12.0787704024        7.4980670979       -2.0424673878  CLST         284          1.0000000000
       852       284  TIP3  H2           11.2680999886        8.7663728893       -1.7877867720  CLST         284          1.0000000000
       853       285  TIP3  OH2          -5.2557062098        1.8342103018        8.8969840372  CLST         285          1.0000000000
       854       285  TIP3  H1           -4.6134417781        1.6618496268        8.1507299435  CLST         285          1.0000000000
       855       285  TIP3  H2           -4.8667075361        2.7227228091        9.1978080464  CLST         285          1.0000000000
       856       286  TIP3  OH2           2.9485675730        5.7627277340       -0.5018387066  CLST         286          1.0000000000
       857       286  TIP3  H1            2.1126029094        5.5411342022       -0.0598622670  CLST         286          1.0000000000
       858       286  TIP3  H2            3.6570437698        5.5960163856        0.1726657906  CLST         286          1.0000000000
       859       287  TIP3  OH2          -4.3297724399        9.2773917008       11.2707537611  CLST         287          1.0000000000
       860       287  TIP3  H1           -4.7810827707       10.1068512829       11.6047184854  CLST         287          1.0000000000
       861       287  TIP3  H2           -5.0408749389        8.7820284012       10.8638863318  CLST         287          1.0000000000
       862       288  TIP3  OH2           5.6027609095        3.5463698318       -9.4304191572  CLST         288          1.0000000000
       863       288  TIP3  H1            5.6918395606        2.7076148257       -9.6904994871  CLST         288          1.0000000000
       864       288  TIP3  H2            6.3888801606        4.0554005895       -9.8658262154  CLST         288          1.0000000000
       865       289  TIP3  OH2          -7.0203255910       -5.2050221883       -8.3377695493  CLST         289          1.0000000000
       866       289  TIP3  H1           -7.8300473505       -4.6453275834       -8.2622144883  CLST         289          1.0000000000
       867       289  TIP3  H2           -6.4744487391       -4.6626081511       -7.8177329701  CLST         289          1.0000000000
       868       290  TIP3  OH2           2.2351815126      -11.8675132298       11.0495152477  CLST         290          1.0000000000
       869       290  TIP3  H1            2.8690616680      -12.6144943127       10.8739887747  CLST         290          1.0000000000
       870       290  TIP3  H2            2.7430443051      -11.4192846978       11.7981662505  CLST         290          1.0000000000
       871       291  TIP3  OH2         -10.2297361538       -3.4234803619        3.0419408754  CLST         291          1.0000000000
       872       291  TIP3  H1          -10.8197555053       -4.1751311949        3.3152294989  CLST         291          1.0000000000
       873       291  TIP3  H2          -10.4745876017       -3.4757606699        2.1107219276  CLST         291          1.0000000000
       874       292  TIP3  OH2          12.2032021375        3.4670675940       -4.6454908091  CLST         292          1.0000000000
       875       292  TIP3  H1           11.4465631996        2.9884277837       -4.9263002721  CLST         292          1.0000000000
       876       292  TIP3  H2           12.3663548282        4.0373603547       -5.4372329531  CLST         292          1.0000000000
       877       293  TIP3  OH2           9.0472534202       10.7521284973       11.0791307642  CLST         293          1.0000000000
       878       293  TIP3  H1            8.7596622754       11.6105487945       11.3576254378  CLST         293          1.0000000000
       879       293  TIP3  H2            9.2759557324       10.9949554130       10.1413936921  CLST         293          1.0000000000
       880       294  TIP3  OH2           4.2709370074        4.5202778622       -2.5491122228  CLST         294          1.0000000000
       881       294  TIP3  H1            3.8296507956        5.1254697550       -1.8478461260  CLST         294          1.0000000000
       882       294  TIP3  H2            4.3494683318        5.1058697963       -3.3010778519  CLST         294          1.0000000000
       883       295  TIP3  OH2          -2.5700864385      -13.4419287707       -8.6879526889  CLST         295          1.0000000000
       884       295  TIP3  H1           -3.2269100107      -13.3997584182       -7.9679474967  CLST         295          1.0000000000
       885       295  TIP3  H2           -1.8330312653      -13.7307524007       -8.1079753535  CLST         295          1.0000000000
       886       296  TIP3  OH2          -1.5848001253       11.2878313470      -12.8932359919  CLST         296          1.0000000000
       887       296  TIP3  H1           -0.6979373294       11.1732004371      -13.1148423625  CLST         296          1.0000000000
       888       296  TIP3  H2           -1.5239722277       11.0548281944      -11.9373900097  CLST         296          1.0000000000
       889       297  TIP3  OH2           8.1841979131       -0.6961645495       11.5459705347  CLST         297          1.0000000000
       890       297  TIP3  H1            8.7450749767       -1.3749319058       11.0648601634  CLST         297          1.0000000000
       891       297  TIP3  H2            7.3693424292       -1.2199872250       11.5763311410  CLST         297          1.0000000000
       892       298  TIP3  OH2           0.8989344973       -1.2581419477       -7.4820680128  CLST         298          1.0000000000
       893       298  TIP3  H1            1.3418172723       -0.6103727612       -8.1614413474  CLST         298          1.0000000000
       894       298  TIP3  H2            0.7808779394       -1.9474344823       -8.2215276131  CLST         298          1.0000000000
       895       299  TIP3  OH2           3.1389290492       10.0831407929       12.7632461922  CLST         299          1.0000000000
       896       299  TIP3  H1            2.3604715647       10.5600758623       12.2939450400  CLST         299          1.0000000000
       897       299  TIP3  H2            2.7064906237        9.2648010426       12.7982427199  CLST         299          1.0000000000
       898       300  TIP3  OH2         -10.9397660275        5.3126832674       -3.8121262060  CLST         300          1.0000000000
       899       300  TIP3  H1          -10.8223466151        5.7499749437       -4.6979494356  CLST         300          1.0000000000
       900       300  TIP3  H2          -10.9192301760        6.1607767683       -3.2972121930  CLST         300          1.0000000000
       901       301  TIP3  OH2           9.6892754452       -8.2250940773       11.2231986368  CLST         301          1.0000000000
       902       301  TIP3  H1            9.4354963758       -7.7864357907       12.0981190818  CLST         301          1.0000000000
       903       301  TIP3  H2            9.5634829560       -9.1920188154       11.5301292311  CLST         301          1.0000000000
       904       302  TIP3  OH2           7.9738317073       12.8168208313        5.4518458734  CLST         302          1.0000000000
       905       302  TIP3  H1            7.4641644628       13.4673141976        4.9266076017  CLST         302          1.0000000000
       906       302  TIP3  H2            7.3387903507       12.1247516991        5.6581060785  CLST         302          1.0000000000
       907       303  TIP3  OH2         -10.9780583356        1.2655632890       -1.9600826358  CLST         303          1.0000000000
       908       303  TIP3  H1          -10.0582704259        0.9143518130       -1.7065975283  CLST         303          1.0000000000
       909       303  TIP3  H2          -11.1491928215        0.7225071889       -2.7707481970  CLST         303          1.0000000000
       910       304  TIP3  OH2          -7.8307933547        1.3166403111      -14.8921885688  CLST         304          1.0000000000
       911       304  TIP3  H1           -7.4343061051        0.4994888539      -14.3868977518  CLST         304          1.0000000000
       912       304  TIP3  H2           -7.1543022533        1.5680712451      -15.4805041056  CLST         304          1.0000000000
       913       305  TIP3  OH2           3.2292942922       -4.2284766295       13.8241349339  CLST         305          1.0000000000
       914       305  TIP3  H1            4.2096159604       -4.1841899164       13.8410465448  CLST         305          1.0000000000
       915       305  TIP3  H2            3.1364864533       -3.2726121699       13.7762951757  CLST         305          1.0000000000
       916       306  TIP3  OH2           8.8436719304      -11.9664748623      -11.4499865056  CLST         306          1.0000000000
       917       306  TIP3  H1            9.5558922759      -11.7730793117      -12.1994152864  CLST         306          1.0000000000
       918       306  TIP3  H2            8.9056564936      -12.7477190408      -11.0952555224  CLST         306          1.0000000000
       919       307  TIP3  OH2           9.3888824199        7.9747793569       -7.5382943332  CLST         307          1.0000000000
       920       307  TIP3  H1            8.4601289545        8.2463542085       -7.4193911696  CLST         307          1.0000000000
       921       307  TIP3  H2            9.8343370767        8.1819982708       -6.6884052659  CLST         307          1.0000000000
       922       308  TIP3  OH2         -10.9102924133       -4.9438153980        8.7846725470  CLST         308          1.0000000000
       923       308  TIP3  H1          -11.0315455554       -5.6927755645        9.4022683574  CLST         308          1.0000000000
       924       308  TIP3  H2          -10.0176591386       -4.6006792643        9.0814213985  CLST         308          1.0000000000
       925       309  TIP3  OH2          -2.0577892248       -0.4629797294        5.5252860336  CLST         309          1.0000000000
       926       309  TIP3  H1           -2.8531693459       -0.7985678972        5.0530745989  CLST         309          1.0000000000
       927       309  TIP3  H2           -2.1480604592       -0.9706889698        6.3661970959  CLST         309          1.0000000000
       928       310  TIP3  OH2          -5.0872726520       -0.7298144040        7.2455421740  CLST         310          1.0000000000
       929       310  TIP3  H1           -4.3694035738       -0.0996976270        7.5146666374  CLST         310          1.0000000000
       930       310  TIP3  H2           -5.0413544163       -1.3842933481        8.0089664276  CLST         310          1.0000000000
       931       311  TIP3  OH2          -7.2145198671        8.3111371822      -12.3794557267  CLST         311          1.0000000000
       932       311  TIP3  H1           -6.5678792411        7.5702914598      -12.7719768085  CLST         311          1.0000000000
       933       311  TIP3  H2           -7.2025713630        7.9674834903      -11.5106914959  CLST         311          1.0000000000
       934       312  TIP3  OH2           6.4628725818       -1.1781256770       -6.2231242307  CLST         312          1.0000000000
       935       312  TIP3  H1            6.3461073520       -0.3922390265       -5.6535615713  CLST         312          1.0000000000
       936       312  TIP3  H2            6.4372373895       -1.8473448847       -5.5169195724  CLST         312          1.0000000000
       937       313  TIP3  OH2          -8.8361741375      -10.5002398527        7.0177527341  CLST         313          1.0000000000
       938       313  TIP3  H1           -8.2940774148       -9.6716172472        6.9636922078  CLST         313          1.0000000000
       939       313  TIP3  H2           -9.3751500547      -10.4911374051        6.2150987721  CLST         313          1.0000000000
       940       314  TIP3  OH2          -1.4379482177      -11.9965370263      -10.6628654099  CLST         314          1.0000000000
       941       314  TIP3  H1           -1.3548478810      -11.1725985438      -10.1432281389  CLST         314          1.0000000000
       942       314  TIP3  H2           -1.8949884000      -12.5680967585       -9.9477244319  CLST         314          1.0000000000
       943       315  TIP3  OH2          -1.4591842375       -0.5944606611       -6.4247686122  CLST         315          1.0000000000
       944       315  TIP3  H1           -0.5854130424       -0.8859672874       -6.8157280433  CLST         315          1.0000000000
       945       315  TIP3  H2           -1.2329398997       -0.2142653367       -5.5435119528  CLST         315          1.0000000000
       946       316  TIP3  OH2         -13.3084393569       -3.7961468656       -5.3946615778  CLST         316          1.0000000000
       947       316  TIP3  H1          -12.4802894956       -4.2090282668       -5.7055520408  CLST         316          1.0000000000
       948       316  TIP3  H2          -12.9681151615       -2.8922754876       -5.6724294921  CLST         316          1.0000000000
       949       317  TIP3  OH2          -6.2618496146       -0.0674769500       -3.8006517460  CLST         317          1.0000000000
       950       317  TIP3  H1           -5.4191974329       -0.0997674667       -3.2794575830  CLST         317          1.0000000000
       951       317  TIP3  H2           -6.7754929299        0.4105549348       -3.0615292233  CLST         317          1.0000000000
       952       318  TIP3  OH2          -3.9445147096       -9.7029436292       -9.3865631205  CLST         318          1.0000000000
       953       318  TIP3  H1           -4.1657417838       -9.8341942879       -8.4394512531  CLST         318          1.0000000000
       954       318  TIP3  H2           -2.9521143069       -9.7500210695       -9.2849743116  CLST         318          1.0000000000
       955       319  TIP3  OH2           5.6270025860       10.7300086162        8.6662646016  CLST         319          1.0000000000
       956       319  TIP3  H1            6.4685511366       10.2310096836        8.4695503538  CLST         319          1.0000000000
       957       319  TIP3  H2            6.0118146107       11.4839269681        9.0745044186  CLST         319          1.0000000000
       958       320  TIP3  OH2         -10.6054319983        0.7630767689      -14.6007565457  CLST         320          1.0000000000
       959       320  TIP3  H1           -9.7731571576        1.1273710117      -15.0294527976  CLST         320          1.0000000000
       960       320  TIP3  H2          -10.2878908418        0.0339448673      -14.0151218004  CLST         320          1.0000000000
       961       321  TIP3  OH2          -9.8748158381       10.2337235480       -9.5046330764  CLST         321          1.0000000000
       962       321  TIP3  H1          -10.3312163591       10.0463011456      -10.3163010052  CLST         321          1.0000000000
       963       321  TIP3  H2          -10.1141474764        9.8935219277      -11.8261278277  CLST         321          1.0000000000
       964       322  TIP3  OH2         -12.5188674195       -1.8133987976       -2.5246699682  CLST         322          1.0000000000
       965       322  TIP3  H1          -12.0675403331       -1.2743670730       -3.2678845553  CLST         322          1.0000000000
       966       322  TIP3  H2          -11.6648887739       -2.0265367992       -2.0803732755  CLST         322          1.0000000000
       967       323  TIP3  OH2          -1.1019743062        4.0128040708        4.2585001260  CLST         323          1.0000000000
       968       323  TIP3  H1           -0.7197511112        3.1554535615        4.5762784636  CLST         323          1.0000000000
       969       323  TIP3  H2           -1.0159694154        3.8809820213        3.2417438284  CLST         323          1.0000000000
       970       324  TIP3  OH2         -10.9821664921        6.2499447822        1.4591900965  CLST         324          1.0000000000
       971       324  TIP3  H1          -11.1425893209        5.4561134437        2.0699457156  CLST         324          1.0000000000
       972       324  TIP3  H2          -10.2973481759        6.6335563862        2.1029648766  CLST         324          1.0000000000
       973       325  TIP3  OH2          -4.6170819134        0.8192006065        3.7649622653  CLST         325          1.0000000000
       974       325  TIP3  H1           -5.6164877535        0.8494520473        3.6526277475  CLST         325          1.0000000000
       975       325  TIP3  H2           -4.3762078588        1.7401058543        3.7249131607  CLST         325          1.0000000000
       976       326  TIP3  OH2           9.1156326119        8.5672396092       -2.7294244664  CLST         326          1.0000000000
       977       326  TIP3  H1            8.6142854852        7.8070596015       -2.3117635945  CLST         326          1.0000000000
       978       326  TIP3  H2            8.3237454728        8.6743566598       -3.4069621357  CLST         326          1.0000000000
       979       327  TIP3  OH2          10.4313739706       -3.7551106352      -13.1513134972  CLST         327          1.0000000000
       980       327  TIP3  H1           10.6228465999       -3.2319912124      -13.7987911713  CLST         327          1.0000000000
       981       327  TIP3  H2           10.0140846375       -3.1595240097      -12.4989053026  CLST         327          1.0000000000
       982       328  TIP3  OH2           2.2012760346        6.9229861506      -10.0192569789  CLST         328          1.0000000000
       983       328  TIP3  H1            2.2201184742        6.1229802952       -9.4429225529  CLST         328          1.0000000000
       984       328  TIP3  H2            3.1772835926        6.9768050579      -10.1504024666  CLST         328          1.0000000000
       985       329  TIP3  OH2           1.3786896352      -11.7224613738       -2.3761255201  CLST         329          1.0000000000
       986       329  TIP3  H1            1.5965050956      -10.7749736971       -2.7726705311  CLST         329          1.0000000000
       987       329  TIP3  H2            2.2416064496      -11.7778266648       -1.8601386927  CLST         329          1.0000000000
       988       330  TIP3  OH2          -9.4995617570       -0.8147537128        3.4106953259  CLST         330          1.0000000000
       989       330  TIP3  H1           -9.8071848979       -1.8101776424        3.4097991896  CLST         330          1.0000000000
       990       330  TIP3  H2          -10.2446849596       -0.4234287869        3.8891746773  CLST         330          1.0000000000
       991       331  TIP3  OH2          12.3043559178        9.9401143567       -9.0825066871  CLST         331          1.0000000000
       992       331  TIP3  H1           12.8104269323       10.0051747108       -9.9266258296  CLST         331          1.0000000000
       993       331  TIP3  H2           12.1032936021        8.9224018987       -9.0064356678  CLST         331          1.0000000000
       994       332  TIP3  OH2          11.1635569217       -1.4661279106       -4.4749406631  CLST         332          1.0000000000
       995       332  TIP3  H1           12.1328130349       -0.0171054751       -3.7502246088  CLST         332          1.0000000000
       996       332  TIP3  H2           13.1702981740       -0.8748014463       -3.3590817525  CLST         332          1.0000000000
       997       333  TIP3  OH2          10.6185131234      -14.1120553051        7.9542436792  CLST         333          1.0000000000
       998       333  TIP3  H1            9.7891157151      -13.6254691366        8.0965056737  CLST         333          1.0000000000
       999       333  TIP3  H2           10.6269428869      -14.0809930734        6.9967886030  CLST         333          1.0000000000
      1000       334  TIP3  OH2         -10.8435580532       -9.6673838188        9.0288187253  CLST         334          1.0000000000
      1001       334  TIP3  H1          -11.6428221215       -9.8828263171        8.4957708763  CLST         334          1.0000000000
      1002       334  TIP3  H2          -10.2168222203      -10.0298053019        8.3226261227  CLST         334          1.0000000000
      1003       335  TIP3  OH2           6.9765741007      -10.1486688035        1.5325660241  CLST         335          1.0000000000
      1004       335  TIP3  H1            6.9085109072      -10.2827555119        2.5170862861  CLST         335          1.0000000000
      1005       335  TIP3  H2            6.0498005457      -10.1159368481        1.2562153712  CLST         335          1.0000000000
      1006       336  TIP3  OH2          -9.2650545452       -3.7479775683       -3.5953492756  CLST         336          1.0000000000
      1007       336  TIP3  H1           -9.0802459933       -4.3945132306       -4.2753809189  CLST         336          1.0000000000
      1008       336  TIP3  H2           -8.8412310399       -2.9758380624       -3.9856219692  CLST         336          1.0000000000
      1009       337  TIP3  OH2          -1.4718724600       -4.8384439122        8.0605886486  CLST         337          1.0000000000
      1010       337  TIP3  H1           -1.1314738743       -4.6800168632        9.0594365913  CLST         337          1.0000000000
      1011       337  TIP3  H2           -1.7768843069       -3.7996737750        8.0896065323  CLST         337          1.0000000000
      1012       338  TIP3  OH2          -0.6583310173        2.7060166451       10.7829867582  CLST         338          1.0000000000
      1013       338  TIP3  H1           -0.8478329241        2.5643780078        9.8223232308  CLST         338          1.0000000000
      1014       338  TIP3  H2           -0.1756658972        1.8535073520       10.9027982657  CLST         338          1.0000000000
      1015       339  TIP3  OH2           7.8032694238        8.0164493438        2.8807663606  CLST         339          1.0000000000
      1016       339  TIP3  H1            7.4684175435        8.8243938117        3.4503045101  CLST         339          1.0000000000
      1017       339  TIP3  H2            7.0438763331        8.0357257169        2.2455574068  CLST         339          1.0000000000
      1018       340  TIP3  OH2          -4.6142755449      -11.6012482507      -11.4223210815  CLST         340          1.0000000000
      1019       340  TIP3  H1           -4.2232608042      -10.8563393547      -10.8871267862  CLST         340          1.0000000000
      1020       340  TIP3  H2           -4.4919902066      -12.2527632326      -10.6909772044  CLST         340          1.0000000000
      1021       341  TIP3  OH2          -6.6194232152        4.7774428946        9.2946323167  CLST         341          1.0000000000
      1022       341  TIP3  H1           -5.7076011636        4.5378813010        9.4336179444  CLST         341          1.0000000000
      1023       341  TIP3  H2           -7.0870971001        3.9384755014        9.3698670237  CLST         341          1.0000000000
      1024       342  TIP3  OH2          -4.3816430674      -11.0202804778       13.9163677029  CLST         342          1.0000000000
      1025       342  TIP3  H1           -5.2039580720      -11.0088746808       13.3824765619  CLST         342          1.0000000000
      1026       342  TIP3  H2           -4.3697909121      -11.2039820132       14.8177365794  CLST         342          1.0000000000
      1027       343  TIP3  OH2           1.4399415014       -8.9867889324       -9.8373805533  CLST         343          1.0000000000
      1028       343  TIP3  H1            1.4216786726       -8.1140202746      -10.2889064778  CLST         343          1.0000000000
      1029       343  TIP3  H2            1.8725783999       -9.4695964575      -10.5886021503  CLST         343          1.0000000000
      1030       344  TIP3  OH2           5.5087756580       -4.0647801290        6.4577791319  CLST         344          1.0000000000
      1031       344  TIP3  H1            4.7314167940       -4.5207220512        6.9732103697  CLST         344          1.0000000000
      1032       344  TIP3  H2            5.9247642776       -4.7927380555        6.0163115830  CLST         344          1.0000000000
      1033       345  TIP3  OH2          13.0368365899        7.0190925476        8.8194749886  CLST         345          1.0000000000
      1034       345  TIP3  H1           12.7855734815        6.1786363188        8.5851056745  CLST         345          1.0000000000
      1035       345  TIP3  H2           12.4468261396        7.2100015584        9.6140860967  CLST         345          1.0000000000
      1036       346  TIP3  OH2           9.3008404012        9.3480315630        0.9562390389  CLST         346          1.0000000000
      1037       346  TIP3  H1            9.6144371299       10.1648083533        1.5186191454  CLST         346          1.0000000000
      1038       346  TIP3  H2            8.9415479829        8.8367056125        1.7300033233  CLST         346          1.0000000000
      1039       347  TIP3  OH2          -5.0054536965        2.8768904876       -9.6352824162  CLST         347          1.0000000000
      1040       347  TIP3  H1           -5.7278111403        3.2693010824       -9.0684961545  CLST         347          1.0000000000
      1041       347  TIP3  H2           -4.3246635327        2.9844661419       -8.9474892162  CLST         347          1.0000000000
      1042       348  TIP3  OH2          -1.2821636045        6.1946523696        5.7276502583  CLST         348          1.0000000000
      1043       348  TIP3  H1           -1.5264521579        5.2895976257        5.2623651835  CLST         348          1.0000000000
      1044       348  TIP3  H2           -0.7533727367        6.5587288810        4.9555209654  CLST         348          1.0000000000
      1045       349  TIP3  OH2          -4.1054767609        5.1695100549       -2.4119190242  CLST         349          1.0000000000
      1046       349  TIP3  H1           -3.6932013943        4.8298694923       -3.2396905577  CLST         349          1.0000000000
      1047       349  TIP3  H2           -3.5332978583        6.0055707492       -2.4681190435  CLST         349          1.0000000000
      1048       350  TIP3  OH2          -2.5297768685        8.8996305188        5.1425026070  CLST         350          1.0000000000
      1049       350  TIP3  H1           -3.2175676161        8.6122230124        4.5034366770  CLST         350          1.0000000000
      1050       350  TIP3  H2           -2.1909907264        8.1177354776        5.5554469026  CLST         350          1.0000000000
      1051       351  TIP3  OH2           4.7061959778       -7.7242771306       -7.6670949200  CLST         351          1.0000000000
      1052       351  TIP3  H1            3.9825442043       -8.3962484554       -7.6398075907  CLST         351          1.0000000000
      1053       351  TIP3  H2            4.7353532633       -7.4656676896       -8.6517194212  CLST         351          1.0000000000
      1054       352  TIP3  OH2         -10.3511731258      -10.9328218725        1.8945406397  CLST         352          1.0000000000
      1055       352  TIP3  H1           -9.3714134902      -10.9776030612        1.9306540028  CLST         352          1.0000000000
      1056       352  TIP3  H2          -10.4730951899      -10.1959081687        1.1870742461  CLST         352          1.0000000000
      1057       353  TIP3  OH2          10.6890559491       -8.1329048462       -8.3845440674  CLST         353          1.0000000000
      1058       353  TIP3  H1            9.7840799783       -8.4804012243       -8.5143789582  CLST         353          1.0000000000
      1059       353  TIP3  H2           10.9757467034       -8.2807585933       -7.4466480523  CLST         353          1.0000000000
      1060       354  TIP3  OH2           6.9550125059      -10.6783873537        4.0499318902  CLST         354          1.0000000000
      1061       354  TIP3  H1            7.6156352489      -10.9894786813        4.7916546916  CLST         354          1.0000000000
      1062       354  TIP3  H2            6.7536168262       -9.8257792987        4.5387317056  CLST         354          1.0000000000
      1063       355  TIP3  OH2          -7.1643748104        8.9491101271       -8.8378061432  CLST         355          1.0000000000
      1064       355  TIP3  H1           -6.5044777748        9.6147878446       -9.0158612103  CLST         355          1.0000000000
      1065       355  TIP3  H2           -7.8789956409        9.3333073315       -9.3078675919  CLST         355          1.0000000000
      1066       356  TIP3  OH2          12.6610163249        1.1366909337       -2.1901210386  CLST         356          1.0000000000
      1067       356  TIP3  H1           10.8541575407        0.6971331086       -1.8590329153  CLST         356          1.0000000000
      1068       356  TIP3  H2           12.2405811879        0.4403608251       -0.8844467907  CLST         356          1.0000000000
      1069       357  TIP3  OH2          -0.5548693444       -0.3078996494       -1.8309557967  CLST         357          1.0000000000
      1070       357  TIP3  H1            0.2009126933       -0.8846300694       -2.1286197771  CLST         357          1.0000000000
      1071       357  TIP3  H2           -0.7949929458       -0.0548842540       -2.7753325545  CLST         357          1.0000000000
      1072       358  TIP3  OH2          -5.7792950606        7.1296496147       -7.6072535953  CLST         358          1.0000000000
      1073       358  TIP3  H1           -6.4494686043        7.6417252349       -8.1314327599  CLST         358          1.0000000000
      1074       358  TIP3  H2           -6.3958033491        6.6169850942       -7.0697515912  CLST         358          1.0000000000
      1075       359  TIP3  OH2          -5.1658137903       12.4365957761        5.9993573654  CLST         359          1.0000000000
      1076       359  TIP3  H1           -5.6278274034       12.0556584238        5.2616908747  CLST         359          1.0000000000
      1077       359  TIP3  H2           -4.2055880693       12.4912200016        5.7032409909  CLST         359          1.0000000000
      1078       360  TIP3  OH2          -6.8467858589        5.6724298306       -3.3412533533  CLST         360          1.0000000000
      1079       360  TIP3  H1           -7.1595442670        6.2764970689       -2.6412815345  CLST         360          1.0000000000
      1080       360  TIP3  H2           -5.9249295839        5.5411872827       -3.0449656408  CLST         360          1.0000000000
      1081       361  TIP3  OH2          -1.4747217552       -1.0574937853        9.9728764795  CLST         361          1.0000000000
      1082       361  TIP3  H1           -1.7558746140       -0.9192318218       11.5118336995  CLST         361          1.0000000000
      1083       361  TIP3  H2           -1.4341553309       -2.0126996049       11.0066786498  CLST         361          1.0000000000
      1084       362  TIP3  OH2         -10.6268161250        2.7579651865        0.5010483624  CLST         362          1.0000000000
      1085       362  TIP3  H1          -10.4116507295        3.4716825589       -0.1257699095  CLST         362          1.0000000000
      1086       362  TIP3  H2          -11.1901253133        2.1560041261       -0.0220337308  CLST         362          1.0000000000
      1087       363  TIP3  OH2          10.4055482647        2.4821246834       10.2767304359  CLST         363          1.0000000000
      1088       363  TIP3  H1           10.6826764845        1.4751205061        9.9691228062  CLST         363          1.0000000000
      1089       363  TIP3  H2           11.2199838662        2.7655182689       10.3181425856  CLST         363          1.0000000000
      1090       364  TIP3  OH2           7.6318500970       -5.7284254374       -6.3171042475  CLST         364          1.0000000000
      1091       364  TIP3  H1            6.8746803503       -5.2706334352       -6.7518093011  CLST         364          1.0000000000
      1092       364  TIP3  H2            8.3352583178       -5.6898014467       -7.0557779976  CLST         364          1.0000000000
      1093       365  TIP3  OH2          -6.3256413586       -6.7556172726        2.5151519301  CLST         365          1.0000000000
      1094       365  TIP3  H1           -6.6621054665       -5.8826037486        2.7678804831  CLST         365          1.0000000000
      1095       365  TIP3  H2           -7.0448624831       -7.3240275767        2.9131059053  CLST         365          1.0000000000
      1096       366  TIP3  OH2           1.9106720789       -1.4802797742       -3.1207956860  CLST         366          1.0000000000
      1097       366  TIP3  H1            2.8803181267       -1.5266311508       -2.8529081094  CLST         366          1.0000000000
      1098       366  TIP3  H2            2.0502784529       -1.0398922828       -4.0076471558  CLST         366          1.0000000000
      1099       367  TIP3  OH2          -5.2856339561       11.7620744468       12.2112896258  CLST         367          1.0000000000
      1100       367  TIP3  H1           -6.2734011026       11.6676694973       11.8309179426  CLST         367          1.0000000000
      1101       367  TIP3  H2           -5.6571024501       12.3785979108       12.6614696590  CLST         367          1.0000000000
      1102       368  TIP3  OH2          -2.7179472176        6.5758224032        1.1000253760  CLST         368          1.0000000000
      1103       368  TIP3  H1           -2.8520786789        7.3177846652        0.4587338584  CLST         368          1.0000000000
      1104       368  TIP3  H2           -2.9147228984        7.0786750218        1.9492471943  CLST         368          1.0000000000
      1105       369  TIP3  OH2         -11.6286412225       -1.7000745736       -6.6051273774  CLST         369          1.0000000000
      1106       369  TIP3  H1          -10.7880059916       -2.1611749142       -6.6091828047  CLST         369          1.0000000000
      1107       369  TIP3  H2          -11.9239675853       -2.0213381468       -7.5429594312  CLST         369          1.0000000000
      1108       370  TIP3  OH2         -12.0134863026        5.4076804724      -11.5832179999  CLST         370          1.0000000000
      1109       370  TIP3  H1          -12.3475122954        4.8310564742      -12.2826262953  CLST         370          1.0000000000
      1110       370  TIP3  H2          -12.7776286679        5.6910667737      -11.1795880075  CLST         370          1.0000000000
      1111       371  TIP3  OH2           2.1680228284        7.8857548296        5.6845713673  CLST         371          1.0000000000
      1112       371  TIP3  H1            2.2363318718        7.4619670021        6.5717939486  CLST         371          1.0000000000
      1113       371  TIP3  H2            3.1307103084        8.0753171549        5.6049024337  CLST         371          1.0000000000
      1114       372  TIP3  OH2           8.1036424223       -7.5793938942        9.1118498788  CLST         372          1.0000000000
      1115       372  TIP3  H1            8.7942088485       -7.4937510268        8.4710441798  CLST         372          1.0000000000
      1116       372  TIP3  H2            8.7364915677       -7.7929279666        9.8609835162  CLST         372          1.0000000000
      1117       373  TIP3  OH2          11.0334625786       -0.3127981936        6.6950774742  CLST         373          1.0000000000
      1118       373  TIP3  H1           11.2852896394        0.4176362798        6.0968252172  CLST         373          1.0000000000
      1119       373  TIP3  H2           10.1494226135       -0.3265088522        6.3742076393  CLST         373          1.0000000000
      1120       374  TIP3  OH2          -9.5417290077        4.7252442671      -12.3334746772  CLST         374          1.0000000000
      1121       374  TIP3  H1           -9.8526608266        5.2196289275      -13.1525658733  CLST         374          1.0000000000
      1122       374  TIP3  H2          -10.3634409819        4.9798864477      -11.7824585998  CLST         374          1.0000000000
      1123       375  TIP3  OH2           9.7175549254       -5.3825181879       -2.8328885488  CLST         375          1.0000000000
      1124       375  TIP3  H1           10.1408325875       -5.0662987836       -3.6884332037  CLST         375          1.0000000000
      1125       375  TIP3  H2           10.1738536253       -6.2816749360       -2.8008413902  CLST         375          1.0000000000
      1126       376  TIP3  OH2          -2.3731275782      -11.1583899608       12.0493947762  CLST         376          1.0000000000
      1127       376  TIP3  H1           -3.0846659201      -11.2218624989       12.7520839967  CLST         376          1.0000000000
      1128       376  TIP3  H2           -2.8654919334      -11.5354020180       11.2785238946  CLST         376          1.0000000000
      1129       377  TIP3  OH2         -10.0158038507       12.7449231603       10.4489355903  CLST         377          1.0000000000
      1130       377  TIP3  H1           -9.1376094309       12.2256086785       10.5318255109  CLST         377          1.0000000000
      1131       377  TIP3  H2           -9.9354150472       13.4012735564        9.8744103798  CLST         377          1.0000000000
      1132       378  TIP3  OH2           2.0405250363       -7.8214479410        7.4471950425  CLST         378          1.0000000000
      1133       378  TIP3  H1            2.3314306016       -6.9078896596        7.6987840536  CLST         378          1.0000000000
      1134       378  TIP3  H2            1.6567665099       -8.1770539380        8.2712922894  CLST         378          1.0000000000
      1135       379  TIP3  OH2          -9.3664357810        9.4788201076       -1.1964970718  CLST         379          1.0000000000
      1136       379  TIP3  H1           -8.8554569375        9.6729505880       -0.4226725733  CLST         379          1.0000000000
      1137       379  TIP3  H2           -9.6614535946       10.3797706420       -1.5290473848  CLST         379          1.0000000000
      1138       380  TIP3  OH2           2.9833002713       -4.3106739778      -11.4047168963  CLST         380          1.0000000000
      1139       380  TIP3  H1            2.6005085581       -3.4275008101      -11.6881178520  CLST         380          1.0000000000
      1140       380  TIP3  H2            3.4758880298       -4.5225213364      -12.2220549296  CLST         380          1.0000000000
      1141       381  TIP3  OH2          10.2237285700        4.2210244592        3.3052729339  CLST         381          1.0000000000
      1142       381  TIP3  H1            9.4530419033        4.7897664511        3.5774968674  CLST         381          1.0000000000
      1143       381  TIP3  H2           10.8510326074        4.9912648256        3.1311538974  CLST         381          1.0000000000
      1144       382  TIP3  OH2           1.9276831787       -5.2686513465        5.6950296849  CLST         382          1.0000000000
      1145       382  TIP3  H1            2.5177821426       -5.1765464170        6.5290622840  CLST         382          1.0000000000
      1146       382  TIP3  H2            2.4686956981       -5.9579886912        5.2894214348  CLST         382          1.0000000000
      1147       383  TIP3  OH2          10.2642900166        8.9949730624        4.9087752560  CLST         383          1.0000000000
      1148       383  TIP3  H1            9.4942299647        9.0962402939        4.2930064105  CLST         383          1.0000000000
      1149       383  TIP3  H2           10.2968772038        9.9701902941        5.0895851879  CLST         383          1.0000000000
      1150       384  TIP3  OH2          -3.2347671425       -1.7089568088       -8.1053876025  CLST         384          1.0000000000
      1151       384  TIP3  H1           -2.6644589212       -2.4987891350       -8.2702601942  CLST         384          1.0000000000
      1152       384  TIP3  H2           -2.6164716660       -1.2038317575       -7.5242421341  CLST         384          1.0000000000
      1153       385  TIP3  OH2           3.6543439521      -11.8966447729       -0.7086458510  CLST         385          1.0000000000
      1154       385  TIP3  H1            4.5861375693      -12.2369812241       -0.7309009296  CLST         385          1.0000000000
      1155       385  TIP3  H2            3.7318313065      -11.0364674310       -0.3068606501  CLST         385          1.0000000000
      1156       386  TIP3  OH2          -4.2642332437        9.3716184545       -5.9587710451  CLST         386          1.0000000000
      1157       386  TIP3  H1           -4.5679766069        8.4846488557       -6.2739461854  CLST         386          1.0000000000
      1158       386  TIP3  H2           -4.3411725061        9.7336265798       -6.8795477583  CLST         386          1.0000000000
      1159       387  TIP3  OH2          -9.7198022107       10.7948510692        2.6818729154  CLST         387          1.0000000000
      1160       387  TIP3  H1          -10.5127087743       10.3656590164        2.2325460821  CLST         387          1.0000000000
      1161       387  TIP3  H2           -9.0228589167       10.5643615000        2.0332026139  CLST         387          1.0000000000
      1162       388  TIP3  OH2          -1.8461752317      -12.4037442065        6.1227171559  CLST         388          1.0000000000
      1163       388  TIP3  H1           -2.2319273371      -11.5541438531        5.8164177873  CLST         388          1.0000000000
      1164       388  TIP3  H2           -1.8617596584      -12.1486428331        7.0907764316  CLST         388          1.0000000000
      1165       389  TIP3  OH2          -8.1171298222        3.3877928896       -3.7766619336  CLST         389          1.0000000000
      1166       389  TIP3  H1           -7.5010200055        4.1516676440       -3.5411983126  CLST         389          1.0000000000
      1167       389  TIP3  H2           -8.9702970850        3.9065990402       -3.8498947447  CLST         389          1.0000000000
      1168       390  TIP3  OH2          -5.8070909289       -4.1048924884        4.4690828219  CLST         390          1.0000000000
      1169       390  TIP3  H1           -5.5148263420       -3.1460344102        4.6071094134  CLST         390          1.0000000000
      1170       390  TIP3  H2           -4.9709965821       -4.2969138680        3.9683624618  CLST         390          1.0000000000
      1171       391  TIP3  OH2          -8.8072912492       -8.7866906576       -6.2904327485  CLST         391          1.0000000000
      1172       391  TIP3  H1           -9.2247043950       -9.5390963664       -6.7138570019  CLST         391          1.0000000000
      1173       391  TIP3  H2           -8.0415318494       -9.2989029612       -5.8347912617  CLST         391          1.0000000000
      1174       392  TIP3  OH2           1.0677245600       -2.2121657131       10.1323562855  CLST         392          1.0000000000
      1175       392  TIP3  H1            0.5193780302       -3.0690534763       10.4177394798  CLST         392          1.0000000000
      1176       392  TIP3  H2            0.2155521720       -1.6145054480        9.9916857770  CLST         392          1.0000000000
      1177       393  TIP3  OH2          10.6834247413      -11.9486390376       -0.9206998948  CLST         393          1.0000000000
      1178       393  TIP3  H1           10.9841194344      -11.0216888013       -0.7310968345  CLST         393          1.0000000000
      1179       393  TIP3  H2           11.5435586866      -12.2714261820       -1.2676478468  CLST         393          1.0000000000
      1180       394  TIP3  OH2           0.6309278503       11.8071930014       -8.7178340733  CLST         394          1.0000000000
      1181       394  TIP3  H1            0.9545886262       12.0609520569       -7.7873431262  CLST         394          1.0000000000
      1182       394  TIP3  H2            0.7945561499       10.7927186615       -8.5869211318  CLST         394          1.0000000000
      1183       395  TIP3  OH2           7.0356870016        7.7899940382       -4.4852556220  CLST         395          1.0000000000
      1184       395  TIP3  H1            6.0828335973        8.2064493007       -4.5652148361  CLST         395          1.0000000000
      1185       395  TIP3  H2            6.9863412048        7.0661018842       -5.1547438363  CLST         395          1.0000000000
      1186       396  TIP3  OH2          -1.0973895616       -9.9046742993       -9.1004936812  CLST         396          1.0000000000
      1187       396  TIP3  H1           -1.1315935512       -9.7270525566       -8.0942337855  CLST         396          1.0000000000
      1188       396  TIP3  H2           -0.1391393254       -9.6810516584       -9.2488067322  CLST         396          1.0000000000
      1189       397  TIP3  OH2          11.4276403601        7.3366620040       -9.0426765913  CLST         397          1.0000000000
      1190       397  TIP3  H1           11.3592439419        6.5045179623       -8.4675116750  CLST         397          1.0000000000
      1191       397  TIP3  H2           10.5787247098        7.6793630038       -8.6285115320  CLST         397          1.0000000000
      1192       398  TIP3  OH2          10.6762892447        7.7483901751       -4.7952691216  CLST         398          1.0000000000
      1193       398  TIP3  H1           10.2064655422        8.2214880274       -4.0256286116  CLST         398          1.0000000000
      1194       398  TIP3  H2           11.3499763109        7.2916889931       -4.1978231706  CLST         398          1.0000000000
      1195       399  TIP3  OH2           1.8794264924       11.1603339946        4.9051228451  CLST         399          1.0000000000
      1196       399  TIP3  H1            1.3406205343       10.3370453638        5.1168139217  CLST         399          1.0000000000
      1197       399  TIP3  H2            2.3152222388       11.1826996391        5.7949435892  CLST         399          1.0000000000
      1198       400  TIP3  OH2           4.0867917501       -2.9357757139       -5.2388867929  CLST         400          1.0000000000
      1199       400  TIP3  H1            4.8443200257       -2.9079235339       -4.6232238911  CLST         400          1.0000000000
      1200       400  TIP3  H2            4.4698398712       -3.5253336430       -5.9439064319  CLST         400          1.0000000000
      1201       401  TIP3  OH2         -14.7021192974        9.9377688829        6.1672688239  CLST         401          1.0000000000
      1202       401  TIP3  H1          -14.0830795696       10.4570274795        6.7376282959  CLST         401          1.0000000000
      1203       401  TIP3  H2          -14.8389103184        9.3242222477        6.8626002953  CLST         401          1.0000000000
      1204       402  TIP3  OH2           1.7590274837       -1.8236609202       12.8003490414  CLST         402          1.0000000000
      1205       402  TIP3  H1            1.1401364356       -2.6923834978       12.6936228261  CLST         402          1.0000000000
      1206       402  TIP3  H2            1.7285853451       -1.7915697767       11.7795248312  CLST         402          1.0000000000
      1207       403  TIP3  OH2          -1.8790684517       -6.9638183576       -0.5530957080  CLST         403          1.0000000000
      1208       403  TIP3  H1           -1.8027786789       -7.1151755701       -1.7287849775  CLST         403          1.0000000000
      1209       403  TIP3  H2           -1.6845835517       -8.2905993736       -1.4585216260  CLST         403          1.0000000000
      1210       404  TIP3  OH2          -4.9138533574       -2.3809137474        9.1474472143  CLST         404          1.0000000000
      1211       404  TIP3  H1           -4.9172241874       -2.6876010918       10.0821927007  CLST         404          1.0000000000
      1212       404  TIP3  H2           -5.4241199676       -3.1366044521        8.6889378372  CLST         404          1.0000000000
      1213       405  TIP3  OH2         -11.9523232011        7.1687672395       11.2257422371  CLST         405          1.0000000000
      1214       405  TIP3  H1          -11.7422329607        6.2680699876       10.9748360337  CLST         405          1.0000000000
      1215       405  TIP3  H2          -12.9028574611        7.0762506296       11.3034652311  CLST         405          1.0000000000
      1216       406  TIP3  OH2           0.9580167496        7.7640835214      -12.0892208114  CLST         406          1.0000000000
      1217       406  TIP3  H1            1.1055766347        8.6145980566      -12.4810699494  CLST         406          1.0000000000
      1218       406  TIP3  H2            1.4874569668        7.6287581468      -11.2530749228  CLST         406          1.0000000000
      1219       407  TIP3  OH2          10.4187793782      -13.2778803892        5.3016025357  CLST         407          1.0000000000
      1220       407  TIP3  H1           10.2795637399      -13.5421174904        4.4249554408  CLST         407          1.0000000000
      1221       407  TIP3  H2           11.1563967200      -12.5489458645        5.2566988890  CLST         407          1.0000000000
      1222       408  TIP3  OH2          -2.9566817964      -11.5906773906        2.0792212927  CLST         408          1.0000000000
      1223       408  TIP3  H1           -2.1312986602      -11.0263113840        2.0596195522  CLST         408          1.0000000000
      1224       408  TIP3  H2           -2.5148742216      -12.4327252979        2.3565209967  CLST         408          1.0000000000
      1225       409  TIP3  OH2           1.1085618798       -9.4584176312        9.7239851648  CLST         409          1.0000000000
      1226       409  TIP3  H1            0.6992102206       -9.0167537373       10.4784187694  CLST         409          1.0000000000
      1227       409  TIP3  H2            1.6566900726      -10.1391558038       10.2018163114  CLST         409          1.0000000000
      1228       410  TIP3  OH2           9.8188778518       -7.2702777657       -5.0809714831  CLST         410          1.0000000000
      1229       410  TIP3  H1            8.9043047476       -7.0161268015       -5.2794442075  CLST         410          1.0000000000
      1230       410  TIP3  H2           10.2153158326       -6.5626273150       -5.6267930784  CLST         410          1.0000000000
      1231       411  TIP3  OH2          -9.7608197799       -2.2705962479       -1.2975777398  CLST         411          1.0000000000
      1232       411  TIP3  H1           -8.8962520919       -2.2549566210       -0.9577027233  CLST         411          1.0000000000
      1233       411  TIP3  H2           -9.6457125724       -3.1007596640       -1.8059106906  CLST         411          1.0000000000
      1234       412  TIP3  OH2           6.6494663003      -10.5105198165      -12.0853923089  CLST         412          1.0000000000
      1235       412  TIP3  H1            5.9904987795      -10.8348099767      -11.4531215476  CLST         412          1.0000000000
      1236       412  TIP3  H2            7.4529281542      -11.0530275527      -11.8131154989  CLST         412          1.0000000000
      1237       413  TIP3  OH2           7.1119355124       12.9943889688        0.3276727289  CLST         413          1.0000000000
      1238       413  TIP3  H1            7.7021909687       12.3618359636       -0.1625936991  CLST         413          1.0000000000
      1239       413  TIP3  H2            7.8097952261       13.3823095775        0.9348682513  CLST         413          1.0000000000
      1240       414  TIP3  OH2           1.6803622989       -2.4326357904      -12.5512411598  CLST         414          1.0000000000
      1241       414  TIP3  H1            0.7535229369       -2.1842226830      -12.3925704342  CLST         414          1.0000000000
      1242       414  TIP3  H2            1.7973275264       -2.6987748047      -13.4501933679  CLST         414          1.0000000000
      1243       415  TIP3  OH2           4.0245673808        5.1913803643       -8.2984530013  CLST         415          1.0000000000
      1244       415  TIP3  H1            3.4378262219        4.4001167913       -8.1093858458  CLST         415          1.0000000000
      1245       415  TIP3  H2            4.7055700615        4.6113823202       -8.7899998027  CLST         415          1.0000000000
      1246       416  TIP3  OH2           5.7669397035       12.5029319770       -7.6456002237  CLST         416          1.0000000000
      1247       416  TIP3  H1            5.5894525815       13.3571047313       -7.6660909031  CLST         416          1.0000000000
      1248       416  TIP3  H2            6.7779370697       12.3776114220       -8.1632789014  CLST         416          1.0000000000
      1249       417  TIP3  OH2          12.7275319661      -11.1725807351        2.6808296631  CLST         417          1.0000000000
      1250       417  TIP3  H1           11.8974752017      -11.6282572999        2.3519210479  CLST         417          1.0000000000
      1251       417  TIP3  H2           12.6433642819      -10.3173500948        2.0904839150  CLST         417          1.0000000000
      1252       418  TIP3  OH2          -9.2749379855       -1.7177592147        8.3686841725  CLST         418          1.0000000000
      1253       418  TIP3  H1           -8.8218462240       -1.3889814236        7.5531467555  CLST         418          1.0000000000
      1254       418  TIP3  H2           -8.9227704686       -1.0905544756        9.0131814418  CLST         418          1.0000000000
      1255       419  TIP3  OH2          14.0088559341        0.0498914727       -5.7323727807  CLST         419          1.0000000000
      1256       419  TIP3  H1           13.4292083074        0.9505888373       -5.2460838762  CLST         419          1.0000000000
      1257       419  TIP3  H2           14.4487877160        1.2915416074       -5.3049558916  CLST         419          1.0000000000
      1258       420  TIP3  OH2          -8.0167289807       -8.2691424870        3.6967085633  CLST         420          1.0000000000
      1259       420  TIP3  H1           -8.9466248431       -7.9470912113        3.4864074236  CLST         420          1.0000000000
      1260       420  TIP3  H2           -8.0468266195       -9.1314445530        3.2076370416  CLST         420          1.0000000000
      1261       421  TIP3  OH2           3.6573323626       -6.2848743982      -13.3246110609  CLST         421          1.0000000000
      1262       421  TIP3  H1            4.5700662991       -6.6282881936      -13.2144229240  CLST         421          1.0000000000
      1263       421  TIP3  H2            3.1319537315       -7.1647687617      -13.3481759992  CLST         421          1.0000000000
      1264       422  TIP3  OH2          -1.8757342259       -9.5084682571       -1.5817791967  CLST         422          1.0000000000
      1265       422  TIP3  H1           -1.2567459787      -10.2539182949       -1.6022875031  CLST         422          1.0000000000
      1266       422  TIP3  H2           -2.7549801056      -10.1295964164       -1.6830422199  CLST         422          1.0000000000
      1267       423  TIP3  OH2           1.7476565063        4.8258535080       -4.0140133585  CLST         423          1.0000000000
      1268       423  TIP3  H1            2.6044367792        5.1561386049       -4.4085692135  CLST         423          1.0000000000
      1269       423  TIP3  H2            2.0821970715        4.5668546911       -3.1241309810  CLST         423          1.0000000000
      1270       424  TIP3  OH2          -9.1681697864        4.4477994143        4.4360068978  CLST         424          1.0000000000
      1271       424  TIP3  H1           -9.1542881530        3.7932279554        3.7099183128  CLST         424          1.0000000000
      1272       424  TIP3  H2           -8.4703165155        5.1077731129        4.2488221477  CLST         424          1.0000000000
      1273       425  TIP3  OH2           8.2759254598      -12.6336122406        8.4066312889  CLST         425          1.0000000000
      1274       425  TIP3  H1            8.1684701552      -12.4909732719        7.4210208004  CLST         425          1.0000000000
      1275       425  TIP3  H2            7.9819687229      -11.7138903269        8.6002082657  CLST         425          1.0000000000
      1276       426  TIP3  OH2           8.1425126495        2.2202914098        8.1129468870  CLST         426          1.0000000000
      1277       426  TIP3  H1            8.9177246502        2.1389063558        8.6975869648  CLST         426          1.0000000000
      1278       426  TIP3  H2            8.3233293978        3.1401986380        7.7751245982  CLST         426          1.0000000000
      1279       427  TIP3  OH2          11.4256762552        7.4643587365       10.8067996550  CLST         427          1.0000000000
      1280       427  TIP3  H1           11.3641908046        7.7439908743       11.7378644329  CLST         427          1.0000000000
      1281       427  TIP3  H2           10.6169472614        6.8203129446       10.7529024191  CLST         427          1.0000000000
      1282       428  TIP3  OH2          12.7091880129        8.1546397836        0.3912993230  CLST         428          1.0000000000
      1283       428  TIP3  H1           12.5297973368        8.8244096347       -0.3076836866  CLST         428          1.0000000000
      1284       428  TIP3  H2           13.6309652071        7.9900365174        0.1278679603  CLST         428          1.0000000000
      1285       429  TIP3  OH2          11.9736803303       -9.8303866512       -0.8690100907  CLST         429          1.0000000000
      1286       429  TIP3  H1           12.1937309823       -9.2511245081       -0.0547741068  CLST         429          1.0000000000
      1287       429  TIP3  H2           11.6709600483       -9.1466850356       -1.5900191955  CLST         429          1.0000000000
      1288       430  TIP3  OH2           9.9479290292       -6.5187978668        3.6097516857  CLST         430          1.0000000000
      1289       430  TIP3  H1            9.9913028911       -7.1207310916        2.8023821758  CLST         430          1.0000000000
      1290       430  TIP3  H2           10.9453811843       -6.4799625550        3.7391429783  CLST         430          1.0000000000
      1291       431  TIP3  OH2         -12.6592586832        9.4570569876       -2.5302171302  CLST         431          1.0000000000
      1292       431  TIP3  H1          -13.3773654195        9.4710470738       -2.9271168359  CLST         431          1.0000000000
      1293       431  TIP3  H2          -13.1797474463        9.2181311737       -1.6768959626  CLST         431          1.0000000000
      1294       432  TIP3  OH2           5.3889479431        8.4726875446      -10.1190633202  CLST         432          1.0000000000
      1295       432  TIP3  H1            5.7269231573        8.8084750450       -9.2175189049  CLST         432          1.0000000000
      1296       432  TIP3  H2            4.6319825118        9.1526061922      -10.0073833863  CLST         432          1.0000000000
      1297       433  TIP3  OH2          -0.6388329154        8.0357221403        7.6689619220  CLST         433          1.0000000000
      1298       433  TIP3  H1           -1.4155219265        8.4559375993        8.0992695356  CLST         433          1.0000000000
      1299       433  TIP3  H2           -1.0392097029        7.3905730304        7.0563593947  CLST         433          1.0000000000
      1300       434  TIP3  OH2          -7.2892745448        0.6637748926        3.7748548104  CLST         434          1.0000000000
      1301       434  TIP3  H1           -7.6533364138        1.4195667210        3.1790480570  CLST         434          1.0000000000
      1302       434  TIP3  H2           -8.0446871757        0.0732372546        3.5042983385  CLST         434          1.0000000000
      1303       435  TIP3  OH2          10.0431207427       -0.3109564899       -7.0603210579  CLST         435          1.0000000000
      1304       435  TIP3  H1           10.5185719892       -1.0432316611       -6.4920560971  CLST         435          1.0000000000
      1305       435  TIP3  H2           11.5010695926       -0.1216188535       -7.5406447144  CLST         435          1.0000000000
      1306       436  TIP3  OH2           3.6650200174       10.3290051155       -9.0313628549  CLST         436          1.0000000000
      1307       436  TIP3  H1            3.8865881518       11.0607048528       -8.3964530554  CLST         436          1.0000000000
      1308       436  TIP3  H2            2.7705311011       10.0671295379       -8.7271109512  CLST         436          1.0000000000
      1309       437  TIP3  OH2          -8.2192636722       -0.9945354171       -7.9246847401  CLST         437          1.0000000000
      1310       437  TIP3  H1           -8.4676306812       -0.6171025284       -8.7824399109  CLST         437          1.0000000000
      1311       437  TIP3  H2           -7.2636699881       -0.7351618744       -7.9347143006  CLST         437          1.0000000000
      1312       438  TIP3  OH2          -3.4958382907        5.6188856277       -8.1480738597  CLST         438          1.0000000000
      1313       438  TIP3  H1           -4.4427027934        5.9450243562       -7.9802299384  CLST         438          1.0000000000
      1314       438  TIP3  H2           -3.4186796063        5.9852998594       -9.0842215459  CLST         438          1.0000000000
      1315       439  TIP3  OH2          13.8775982072        1.8237979959       -3.2786826947  CLST         439          1.0000000000
      1316       439  TIP3  H1           13.2748555651        2.5332230944       -3.5992745053  CLST         439          1.0000000000
      1317       439  TIP3  H2           13.4096961288        1.5403841535       -2.4698055149  CLST         439          1.0000000000
      1318       440  TIP3  OH2           1.0499470397      -12.7509878236      -11.1408504925  CLST         440          1.0000000000
      1319       440  TIP3  H1            0.0729189022      -12.4206874900      -10.9968688736  CLST         440          1.0000000000
      1320       440  TIP3  H2            0.9506851291      -13.6926197346      -11.3114737549  CLST         440          1.0000000000
      1321       441  TIP3  OH2          -1.4415651348       -4.2452903692        3.1107395001  CLST         441          1.0000000000
      1322       441  TIP3  H1           -2.0405246040       -3.6066452680        3.1764378846  CLST         441          1.0000000000
      1323       441  TIP3  H2           -1.2624464144       -4.5624635644        4.0314318036  CLST         441          1.0000000000
      1324       442  TIP3  OH2           3.1400862283       -9.7055669706       -7.9777562458  CLST         442          1.0000000000
      1325       442  TIP3  H1            3.6952188486      -10.2195738083       -8.5791981377  CLST         442          1.0000000000
      1326       442  TIP3  H2            2.3867366667       -9.4675979100       -8.5760492810  CLST         442          1.0000000000
      1327       443  TIP3  OH2           1.1367548368       10.5287334776      -12.9855931665  CLST         443          1.0000000000
      1328       443  TIP3  H1            1.4152946011       11.5802498445      -12.0142267427  CLST         443          1.0000000000
      1329       443  TIP3  H2            2.0592257642       11.2208187736      -13.3337146894  CLST         443          1.0000000000
      1330       444  TIP3  OH2          -7.9021138125        1.4175412276       -1.9265355790  CLST         444          1.0000000000
      1331       444  TIP3  H1           -8.0482381816        2.1554602308       -2.5583319794  CLST         444          1.0000000000
      1332       444  TIP3  H2           -7.3968886112        1.8965295515       -1.2529878349  CLST         444          1.0000000000
      1333       445  TIP3  OH2         -11.4094831056       -5.2523374325        6.0348919029  CLST         445          1.0000000000
      1334       445  TIP3  H1          -11.5164726044       -4.2447468867        5.9885332231  CLST         445          1.0000000000
      1335       445  TIP3  H2          -11.4656674699       -5.2877065277        7.0430661940  CLST         445          1.0000000000
      1336       446  TIP3  OH2          -3.0309567294        4.6471985296       -5.3894429454  CLST         446          1.0000000000
      1337       446  TIP3  H1           -3.1194375569        4.8557924744       -6.3368551730  CLST         446          1.0000000000
      1338       446  TIP3  H2           -2.1429826417        5.0634572239       -5.2508544057  CLST         446          1.0000000000
      1339       447  TIP3  OH2          -5.0862984672      -12.7536239677       -3.8650910149  CLST         447          1.0000000000
      1340       447  TIP3  H1           -5.5281508056      -13.3385437374       -3.2765043010  CLST         447          1.0000000000
      1341       447  TIP3  H2           -4.5412360573      -12.2610900332       -3.2169671332  CLST         447          1.0000000000
      1342       448  TIP3  OH2           7.2091107463        9.5706176739        4.6530772170  CLST         448          1.0000000000
      1343       448  TIP3  H1            7.4684090528        9.5052460773        5.6093305619  CLST         448          1.0000000000
      1344       448  TIP3  H2            6.4782512870       10.2465511569        4.7836639541  CLST         448          1.0000000000
      1345       449  TIP3  OH2           4.0646571214        5.1517445885        8.4369521797  CLST         449          1.0000000000
      1346       449  TIP3  H1            5.4086959363        3.5148570526        9.1310382635  CLST         449          1.0000000000
      1347       449  TIP3  H2            4.3210066271        4.3723386172        8.5339335869  CLST         449          1.0000000000
      1348       450  TIP3  OH2          -4.0184212610        0.4804740214       -1.9685665175  CLST         450          1.0000000000
      1349       450  TIP3  H1           -3.6728109491        1.2129669652       -2.5135944130  CLST         450          1.0000000000
      1350       450  TIP3  H2           -3.2663718184        0.1339553232       -1.4912704765  CLST         450          1.0000000000
      1351       451  TIP3  OH2          13.4100546830       -1.9340398058       -6.1306209375  CLST         451          1.0000000000
      1352       451  TIP3  H1           13.9209175327       -1.0509632527       -5.4185818129  CLST         451          1.0000000000
      1353       451  TIP3  H2           13.0869191516       -0.8103539316       -5.9315505861  CLST         451          1.0000000000
      1354       452  TIP3  OH2           8.3716008991        5.1119884767        7.9577181172  CLST         452          1.0000000000
      1355       452  TIP3  H1            7.6187872731        5.7705879628        7.8438593098  CLST         452          1.0000000000
      1356       452  TIP3  H2            9.0720083583        5.7108987707        7.5250903265  CLST         452          1.0000000000
      1357       453  TIP3  OH2           6.9507455036        2.6991419634       -5.9396931426  CLST         453          1.0000000000
      1358       453  TIP3  H1            6.0929504921        2.2842915136       -5.6804932281  CLST         453          1.0000000000
      1359       453  TIP3  H2            6.5495706379        3.1569590737       -6.7122524587  CLST         453          1.0000000000
      1360       454  TIP3  OH2           1.1691471713        5.5370483503        1.8697147005  CLST         454          1.0000000000
      1361       454  TIP3  H1            0.2554343742        5.1891675097        1.8386287895  CLST         454          1.0000000000
      1362       454  TIP3  H2            1.0098691990        6.2583062250        2.5470050619  CLST         454          1.0000000000
      1363       455  TIP3  OH2          -1.1492827802        0.8598909836      -10.3726898859  CLST         455          1.0000000000
      1364       455  TIP3  H1           -1.5573429652        1.0068846914       -9.5097277112  CLST         455          1.0000000000
      1365       455  TIP3  H2           -0.9327050331        1.7726892440      -10.5932435894  CLST         455          1.0000000000
      1366       456  TIP3  OH2           5.2788141720       11.1703669877        4.9130769132  CLST         456          1.0000000000
      1367       456  TIP3  H1            4.6807395949       11.5618930997        4.2333975667  CLST         456          1.0000000000
      1368       456  TIP3  H2            4.7020399245       11.1987081796        5.7081109832  CLST         456          1.0000000000
      1369       457  TIP3  OH2          -4.8501230932       -7.5590315669        4.6968315535  CLST         457          1.0000000000
      1370       457  TIP3  H1           -5.6834237914       -7.6660927947        5.2079006454  CLST         457          1.0000000000
      1371       457  TIP3  H2           -5.2259362400       -7.0078755359        3.9726770087  CLST         457          1.0000000000
      1372       458  TIP3  OH2           8.1463516727       -6.4719994788      -11.4266098877  CLST         458          1.0000000000
      1373       458  TIP3  H1            9.1323190802       -6.2960976880      -11.5553290425  CLST         458          1.0000000000
      1374       458  TIP3  H2            8.0917906297       -5.6004397183      -10.9642575811  CLST         458          1.0000000000
      1375       459  TIP3  OH2           6.5128022144       -9.9481710585       -7.8676815459  CLST         459          1.0000000000
      1376       459  TIP3  H1            5.9500115914       -9.1554127255       -7.6463689361  CLST         459          1.0000000000
      1377       459  TIP3  H2            7.2683269891       -9.5271644439       -8.3916309632  CLST         459          1.0000000000
      1378       460  TIP3  OH2           9.0608245983       -2.2091452007       -3.0101770807  CLST         460          1.0000000000
      1379       460  TIP3  H1            9.5937826163       -3.0293325115       -2.8889816710  CLST         460          1.0000000000
      1380       460  TIP3  H2            9.8696673293       -1.8194732532       -3.7682818091  CLST         460          1.0000000000
      1381       461  TIP3  OH2          -1.3585032013      -12.7481924699       -5.3974686522  CLST         461          1.0000000000
      1382       461  TIP3  H1           -0.5976631364      -12.8992278483       -5.9931357893  CLST         461          1.0000000000
      1383       461  TIP3  H2           -0.9684259838      -13.0471225862       -4.5315123399  CLST         461          1.0000000000
      1384       462  TIP3  OH2           0.1053040988        5.3134307658      -12.7223328384  CLST         462          1.0000000000
      1385       462  TIP3  H1            0.2135322777        6.3221133557      -12.4656630464  CLST         462          1.0000000000
      1386       462  TIP3  H2            1.0442238656        5.2205506168      -12.9284736396  CLST         462          1.0000000000
      1387       463  TIP3  OH2          -1.7924949337        1.7297104157       -7.6366189182  CLST         463          1.0000000000
      1388       463  TIP3  H1           -1.6754690942        0.8268064022       -7.2134978503  CLST         463          1.0000000000
      1389       463  TIP3  H2           -2.7703992582        1.8158642688       -7.4720389128  CLST         463          1.0000000000
      1390       464  TIP3  OH2          -6.5249133829        6.3565488445        4.4475903089  CLST         464          1.0000000000
      1391       464  TIP3  H1           -6.3335482416        5.5519083444        5.0427637743  CLST         464          1.0000000000
      1392       464  TIP3  H2           -7.2332782319        7.3342682915        5.8133467303  CLST         464          1.0000000000
      1393       465  TIP3  OH2          -4.7744582003      -12.5251770344        6.3025841689  CLST         465          1.0000000000
      1394       465  TIP3  H1           -3.9740511194      -13.1011037314        6.1279872529  CLST         465          1.0000000000
      1395       465  TIP3  H2           -4.4340470352      -11.6203006363        6.3839341346  CLST         465          1.0000000000
      1396       466  TIP3  OH2          -2.4103840491        9.3078283590       -4.1543806205  CLST         466          1.0000000000
      1397       466  TIP3  H1           -3.1324702560        9.3787893140       -4.8404129440  CLST         466          1.0000000000
      1398       466  TIP3  H2           -2.7494437679       10.0498534407       -3.4749586212  CLST         466          1.0000000000
      1399       467  TIP3  OH2           8.1821559227        5.9172641297        4.4275232990  CLST         467          1.0000000000
      1400       467  TIP3  H1            8.7396119128        6.3947801146        5.0701268832  CLST         467          1.0000000000
      1401       467  TIP3  H2            7.9557136582        6.6915578624        3.8243270750  CLST         467          1.0000000000
      1402       468  TIP3  OH2          -0.5560800602      -12.3647439038       10.5142515547  CLST         468          1.0000000000
      1403       468  TIP3  H1           -0.9761387738      -11.9671522813       11.2869232491  CLST         468          1.0000000000
      1404       468  TIP3  H2            0.4401953067      -12.1344293505       10.5958567270  CLST         468          1.0000000000
      1405       469  TIP3  OH2           5.5594567355        8.2906581177       14.0275357858  CLST         469          1.0000000000
      1406       469  TIP3  H1            6.4313824853        8.4612528058       13.6227797297  CLST         469          1.0000000000
      1407       469  TIP3  H2            5.0477251149        9.0362035794       13.6270713418  CLST         469          1.0000000000
      1408       470  TIP3  OH2         -11.2418552439       12.7552091207        0.4784677285  CLST         470          1.0000000000
      1409       470  TIP3  H1          -11.1776926615       12.5854484841       -0.4991234301  CLST         470          1.0000000000
      1410       470  TIP3  H2          -11.6290229988       11.9557001302        0.8315375292  CLST         470          1.0000000000
      1411       471  TIP3  OH2          -4.3000037653        9.7774496722       -9.1981433399  CLST         471          1.0000000000
      1412       471  TIP3  H1           -4.4629460907        8.8484385594       -9.3841137306  CLST         471          1.0000000000
      1413       471  TIP3  H2           -4.5272835226       10.2058973332      -10.0371402663  CLST         471          1.0000000000
      1414       472  TIP3  OH2         -11.9820349616        3.9061473169        2.7344338815  CLST         472          1.0000000000
      1415       472  TIP3  H1          -12.3766954767        3.1160078901        3.2040606430  CLST         472          1.0000000000
      1416       472  TIP3  H2          -11.7349310927        3.4002502963        1.9259294152  CLST         472          1.0000000000
      1417       473  TIP3  OH2           5.4871506308        0.9061292451       10.2165574724  CLST         473          1.0000000000
      1418       473  TIP3  H1            5.9958858584        1.7085638605       10.1411230549  CLST         473          1.0000000000
      1419       473  TIP3  H2            4.5850040259        1.0720660064       10.1528014928  CLST         473          1.0000000000
      1420       474  TIP3  OH2           1.3757811341        1.6499134580        1.5763345163  CLST         474          1.0000000000
      1421       474  TIP3  H1            0.4133890720        1.6928558976        1.7340340534  CLST         474          1.0000000000
      1422       474  TIP3  H2            1.1951632377        0.9184365454        0.9411445959  CLST         474          1.0000000000
      1423       475  TIP3  OH2           5.9258196004       -8.8537301765       12.0406512527  CLST         475          1.0000000000
      1424       475  TIP3  H1            6.8365995797       -8.8202042729       12.4219640265  CLST         475          1.0000000000
      1425       475  TIP3  H2            6.1107744509       -9.3419315830       11.2196845644  CLST         475          1.0000000000
      1426       476  TIP3  OH2         -11.3632249951       -9.0317505974        0.0339527576  CLST         476          1.0000000000
      1427       476  TIP3  H1          -11.7493693457       -8.3280749727       -0.5966277306  CLST         476          1.0000000000
      1428       476  TIP3  H2          -10.5216413801       -9.0163224223       -0.5446736496  CLST         476          1.0000000000
      1429       477  TIP3  OH2         -12.4912394880        3.6452778554      -13.5500505374  CLST         477          1.0000000000
      1430       477  TIP3  H1          -12.9616816371        2.8825291938      -13.7736239561  CLST         477          1.0000000000
      1431       477  TIP3  H2          -11.7020898897        3.3808798799      -14.0166083020  CLST         477          1.0000000000
      1432       478  TIP3  OH2          -3.7923581746        6.6087004300      -10.7624914246  CLST         478          1.0000000000
      1433       478  TIP3  H1           -4.4519636684        6.6442830815      -11.4928047101  CLST         478          1.0000000000
      1434       478  TIP3  H2           -3.2187244945        7.3230652061      -11.1116010536  CLST         478          1.0000000000
      1435       479  TIP3  OH2           7.9251487335       -1.5119984902       -8.3497806918  CLST         479          1.0000000000
      1436       479  TIP3  H1            8.6777169275       -1.2441927200       -7.8390633758  CLST         479          1.0000000000
      1437       479  TIP3  H2            7.2457453800       -1.2457118351       -7.5872858467  CLST         479          1.0000000000
      1438       480  TIP3  OH2          -6.1987170202        7.6992754894        0.0801572139  CLST         480          1.0000000000
      1439       480  TIP3  H1           -5.2904715870        7.9718937623       -0.2342600997  CLST         480          1.0000000000
      1440       480  TIP3  H2           -5.9524320038        6.7510492410        0.3126696655  CLST         480          1.0000000000
      1441       481  TIP3  OH2          -3.0006681186        2.2974594430       11.7651216299  CLST         481          1.0000000000
      1442       481  TIP3  H1           -2.0442028379        2.2176640143       11.4633642363  CLST         481          1.0000000000
      1443       481  TIP3  H2           -3.4674700231        1.5581580808       11.9284038672  CLST         481          1.0000000000
      1444       482  TIP3  OH2          -8.0225713580       11.5905168544       -7.5726533949  CLST         482          1.0000000000
      1445       482  TIP3  H1           -8.6898833601       11.1690930547       -8.1897503290  CLST         482          1.0000000000
      1446       482  TIP3  H2           -7.2817113978       11.8910772067       -8.1229344632  CLST         482          1.0000000000
      1447       483  TIP3  OH2           6.4873624849       -6.0380762228       12.7228733443  CLST         483          1.0000000000
      1448       483  TIP3  H1            5.9926818354       -6.8618578891       12.5905925040  CLST         483          1.0000000000
      1449       483  TIP3  H2            6.3597103896       -5.6832001843       11.8172179119  CLST         483          1.0000000000
      1450       484  TIP3  OH2           6.8056355688       -3.1923956389        3.0479330959  CLST         484          1.0000000000
      1451       484  TIP3  H1            5.8252095493       -3.3998216145        3.0910108488  CLST         484          1.0000000000
      1452       484  TIP3  H2            6.7598680412       -2.4133836832        3.6230315854  CLST         484          1.0000000000
      1453       485  TIP3  OH2         -11.6214612924        4.3972996548        9.8945686396  CLST         485          1.0000000000
      1454       485  TIP3  H1          -11.2282161961        3.4828248200        9.7405885719  CLST         485          1.0000000000
      1455       485  TIP3  H2          -12.4746572538        4.1462907797        9.3507249225  CLST         485          1.0000000000
      1456       486  TIP3  OH2           8.5375785155       -7.3259668686       13.5904615744  CLST         486          1.0000000000
      1457       486  TIP3  H1            8.8906351742       -6.9190864464       14.3381754549  CLST         486          1.0000000000
      1458       486  TIP3  H2            7.7906178805       -6.6976815011       13.3221302227  CLST         486          1.0000000000
      1459       487  TIP3  OH2          12.1929309308       -8.3327730932        6.1147082998  CLST         487          1.0000000000
      1460       487  TIP3  H1           11.2396896981       -8.4898658574        5.8623437178  CLST         487          1.0000000000
      1461       487  TIP3  H2           12.1491995258       -8.5621316645        7.1045398788  CLST         487          1.0000000000
      1462       488  TIP3  OH2          14.7383261242        8.6001363020        7.7673220071  CLST         488          1.0000000000
      1463       488  TIP3  H1           15.4400860484        8.1625545510        7.6552389345  CLST         488          1.0000000000
      1464       488  TIP3  H2           14.0818314738        7.8582450631        8.0032840131  CLST         488          1.0000000000
      1465       489  TIP3  OH2          -6.2849665322      -10.8177189405       11.8130182057  CLST         489          1.0000000000
      1466       489  TIP3  H1           -6.4708464516       -9.9085491871       11.7589612984  CLST         489          1.0000000000
      1467       489  TIP3  H2           -6.9953877174      -11.2178255016       11.1677623356  CLST         489          1.0000000000
      1468       490  TIP3  OH2           6.6648129613      -13.1983301062        2.2101976028  CLST         490          1.0000000000
      1469       490  TIP3  H1            6.6648995646      -12.2971499224        2.6161876510  CLST         490          1.0000000000
      1470       490  TIP3  H2            6.4076419074      -13.7831674767        2.8328160033  CLST         490          1.0000000000
      1471       491  TIP3  OH2           3.1304840905       -9.4067536997        5.0926732591  CLST         491          1.0000000000
      1472       491  TIP3  H1            2.1889116172       -9.3181647644        5.4336038345  CLST         491          1.0000000000
      1473       491  TIP3  H2            2.9465633294       -9.9769222444        4.3445370978  CLST         491          1.0000000000
      1474       492  TIP3  OH2          -0.3907868496       -5.7621854482       12.3145691836  CLST         492          1.0000000000
      1475       492  TIP3  H1           -1.1627028390       -7.5597535853       12.5856063911  CLST         492          1.0000000000
      1476       492  TIP3  H2           -0.3378864031       -7.7029208521       12.6265052314  CLST         492          1.0000000000
      1477       493  TIP3  OH2           3.4365161764       10.7431562785        7.2389593850  CLST         493          1.0000000000
      1478       493  TIP3  H1            4.2649035263       10.6716428209        7.7569731083  CLST         493          1.0000000000
      1479       493  TIP3  H2            2.7615738824       10.4443778577        7.8613555394  CLST         493          1.0000000000
      1480       494  TIP3  OH2          -9.2065397038        5.3266956212       -0.5659533890  CLST         494          1.0000000000
      1481       494  TIP3  H1           -9.5816865088        5.8182541051       -1.2635053742  CLST         494          1.0000000000
      1482       494  TIP3  H2           -9.7035615094        5.7865463970        0.1799560913  CLST         494          1.0000000000
      1483       495  TIP3  OH2           4.9692878611       -6.7976944229       -1.7404295794  CLST         495          1.0000000000
      1484       495  TIP3  H1            5.6962518478       -6.3884777639       -2.2874320762  CLST         495          1.0000000000
      1485       495  TIP3  H2            5.4549550923       -7.5426630909       -1.3958377742  CLST         495          1.0000000000
      1486       496  TIP3  OH2         -12.7522137678      -10.7219572007        7.4230698104  CLST         496          1.0000000000
      1487       496  TIP3  H1          -13.4050730594      -11.2943736785        7.8051410065  CLST         496          1.0000000000
      1488       496  TIP3  H2          -12.5002919151      -11.3220351235        6.6759209282  CLST         496          1.0000000000
      1489       497  TIP3  OH2          -9.4742279478      -13.4001732286       -7.1209840516  CLST         497          1.0000000000
      1490       497  TIP3  H1           -9.6462438718      -14.2038360817       -6.6730116342  CLST         497          1.0000000000
      1491       497  TIP3  H2           -9.7002281414      -13.2582466247       -7.9813111911  CLST         497          1.0000000000
      1492       498  TIP3  OH2          -5.6722032067        0.3930688342      -11.1255878916  CLST         498          1.0000000000
      1493       498  TIP3  H1           -6.0219930024        0.3021206685      -12.0032970140  CLST         498          1.0000000000
      1494       498  TIP3  H2           -5.5156006410        1.2925872703      -10.8383750857  CLST         498          1.0000000000
      1495       499  TIP3  OH2          11.5317596677        6.5556936094        3.5413889661  CLST         499          1.0000000000
      1496       499  TIP3  H1           11.8882464788        6.9574167349        2.6817193284  CLST         499          1.0000000000
      1497       499  TIP3  H2           11.4797226922        7.3426068861        4.0862776488  CLST         499          1.0000000000
      1498       500  TIP3  OH2           2.2454136023       -8.5904440950      -13.4199793690  CLST         500          1.0000000000
      1499       500  TIP3  H1            2.0307083937       -9.1019092583      -14.1445535031  CLST         500          1.0000000000
      1500       500  TIP3  H2            2.4973026702       -9.3794335966      -12.8295583835  CLST         500          1.0000000000
      1501       501  TIP3  OH2           1.4415112301      -10.8901849412       13.9411760977  CLST         501          1.0000000000
      1502       501  TIP3  H1            1.4168928892      -11.7663960445       14.3357822121  CLST         501          1.0000000000
      1503       501  TIP3  H2            2.4196580143      -10.8092080086       13.7653153963  CLST         501          1.0000000000
      1504       502  TIP3  OH2           5.9617671780        3.7203895440        9.7034145011  CLST         502          1.0000000000
      1505       502  TIP3  H1            6.0881775563        3.9549885847       10.6736662890  CLST         502          1.0000000000
      1506       502  TIP3  H2            6.9537486356        3.6207547347        9.4046133450  CLST         502          1.0000000000
      1507       503  TIP3  OH2          10.4306690230       -0.9275235632        0.2213309112  CLST         503          1.0000000000
      1508       503  TIP3  H1           11.1234494644       -0.4125684541        0.6251115567  CLST         503          1.0000000000
      1509       503  TIP3  H2            9.9373095155       -0.2935090636       -0.3322145982  CLST         503          1.0000000000
      1510       504  TIP3  OH2           8.4228773570      -13.7097280102       10.9845761575  CLST         504          1.0000000000
      1511       504  TIP3  H1            8.6484748914      -13.5261789207       10.0637307609  CLST         504          1.0000000000
      1512       504  TIP3  H2            8.8279567083      -14.5061582167       11.2655648365  CLST         504          1.0000000000
      1513       505  TIP3  OH2           3.5124864717      -11.0061040531       -5.6140656475  CLST         505          1.0000000000
      1514       505  TIP3  H1            3.3935421672      -10.2690596581       -6.2728002582  CLST         505          1.0000000000
      1515       505  TIP3  H2            2.9682509396      -10.8024881039       -4.8386189876  CLST         505          1.0000000000
      1516       506  TIP3  OH2          -9.1661565672       -3.5001645012       -8.1084189539  CLST         506          1.0000000000
      1517       506  TIP3  H1           -8.7732167046       -2.6112346218       -7.9467407775  CLST         506          1.0000000000
      1518       506  TIP3  H2          -10.0051406553       -3.2752103147       -8.5538168640  CLST         506          1.0000000000
      1519       507  TIP3  OH2          11.0571353677        9.8300149416      -12.7900512349  CLST         507          1.0000000000
      1520       507  TIP3  H1           11.2188776990        9.3954997126      -13.7378066864  CLST         507          1.0000000000
      1521       507  TIP3  H2           11.0174971148        7.9439400851      -12.6915637799  CLST         507          1.0000000000
      1522       508  TIP3  OH2           9.1784106963       12.2883608135        8.7044843536  CLST         508          1.0000000000
      1523       508  TIP3  H1            8.9190953030       11.9474613217        7.8253393889  CLST         508          1.0000000000
      1524       508  TIP3  H2           10.1026723097       12.4286273513        8.3929781218  CLST         508          1.0000000000
      1525       509  TIP3  OH2          -0.7273809085       -1.5725685903      -11.3891213577  CLST         509          1.0000000000
      1526       509  TIP3  H1           -1.6471013756       -1.7103231199      -11.6903686984  CLST         509          1.0000000000
      1527       509  TIP3  H2           -0.8713107687       -0.6345278577      -11.0473391840  CLST         509          1.0000000000
      1528       510  TIP3  OH2           8.1349702338        2.2588070672       11.3982588129  CLST         510          1.0000000000
      1529       510  TIP3  H1            8.0416164186        1.3146301992       11.5491018268  CLST         510          1.0000000000
      1530       510  TIP3  H2            9.0830636408        2.3475750474       11.1519396344  CLST         510          1.0000000000
      1531       511  TIP3  OH2          -8.7356754899       -6.0299806790       -0.8466799578  CLST         511          1.0000000000
      1532       511  TIP3  H1           -9.6718802440       -5.9851500226       -1.1248877740  CLST         511          1.0000000000
      1533       511  TIP3  H2           -8.2904042698       -5.8137123400       -1.6732986163  CLST         511          1.0000000000
      1534       512  TIP3  OH2          10.0660258985        7.0860372677        7.0256981040  CLST         512          1.0000000000
      1535       512  TIP3  H1           10.4193548092        7.6181317142        7.7515041232  CLST         512          1.0000000000
      1536       512  TIP3  H2           10.3430025434        7.7035313576        6.3013425037  CLST         512          1.0000000000
      1537       513  TIP3  OH2         -11.6545756255       10.6127959617        9.3257850958  CLST         513          1.0000000000
      1538       513  TIP3  H1          -11.1341604265       11.3461115848        9.6985664535  CLST         513          1.0000000000
      1539       513  TIP3  H2          -11.6565609493        9.8795583838        9.9262284659  CLST         513          1.0000000000
      1540       514  TIP3  OH2          -4.7979218154        5.0255614471        0.0981073883  CLST         514          1.0000000000
      1541       514  TIP3  H1           -3.9642052130        5.4248707909        0.4066192307  CLST         514          1.0000000000
      1542       514  TIP3  H2           -4.4421976717        5.0532712199       -0.9292159174  CLST         514          1.0000000000
      1543       515  TIP3  OH2          -0.8129003255        0.8304118450       -4.2640953604  CLST         515          1.0000000000
      1544       515  TIP3  H1           -1.5667325951        1.4553480103       -4.4371495009  CLST         515          1.0000000000
      1545       515  TIP3  H2           -0.0743482643        1.4026536164       -4.6565272555  CLST         515          1.0000000000
      1546       516  TIP3  OH2          -7.3456275592       -8.4258633437        6.3563409671  CLST         516          1.0000000000
      1547       516  TIP3  H1           -7.6235130594       -8.5260643669        5.4050012532  CLST         516          1.0000000000
      1548       516  TIP3  H2           -7.9472506936       -7.6426437907        6.6169325343  CLST         516          1.0000000000
      1549       517  TIP3  OH2           0.6514324867       11.0506785743       11.4253577518  CLST         517          1.0000000000
      1550       517  TIP3  H1            0.6111743841       10.7765434748       10.5405077519  CLST         517          1.0000000000
      1551       517  TIP3  H2           -0.3280359211       11.3606512975       11.4566488528  CLST         517          1.0000000000
      1552       518  TIP3  OH2         -11.6595285569       -3.6057145209      -11.1899340859  CLST         518          1.0000000000
      1553       518  TIP3  H1          -12.1937081165       -3.6041359801      -12.0141811060  CLST         518          1.0000000000
      1554       518  TIP3  H2          -10.7460452967       -3.6641732308      -11.4876029208  CLST         518          1.0000000000
      1555       519  TIP3  OH2           2.2776688963        3.4881963905        3.3888043540  CLST         519          1.0000000000
      1556       519  TIP3  H1            2.1161075566        4.2932775936        2.8309670326  CLST         519          1.0000000000
      1557       519  TIP3  H2            1.9909111397        2.7781562091        2.7012867000  CLST         519          1.0000000000
      1558       520  TIP3  OH2         -10.2349219591        6.1679350126        8.1773684934  CLST         520          1.0000000000
      1559       520  TIP3  H1          -10.4849905305        5.7026210277        7.3091575808  CLST         520          1.0000000000
      1560       520  TIP3  H2          -10.8120841056        5.6816971924        8.7938165699  CLST         520          1.0000000000
      1561       521  TIP3  OH2           8.4189393205       -8.9270394817       -9.3667400984  CLST         521          1.0000000000
      1562       521  TIP3  H1            8.6827252700       -9.4325753918      -10.1647010447  CLST         521          1.0000000000
      1563       521  TIP3  H2            8.2820931259       -8.0750448852       -9.8561449015  CLST         521          1.0000000000
      1564       522  TIP3  OH2          -5.3904699308       -7.0169924086        8.2862572955  CLST         522          1.0000000000
      1565       522  TIP3  H1           -5.9555373745       -7.6908031713        7.8172497660  CLST         522          1.0000000000
      1566       522  TIP3  H2           -4.4668220297       -7.3250823146        8.2465630106  CLST         522          1.0000000000
      1567       523  TIP3  OH2          -4.0320871119       12.0979183750      -13.4528516346  CLST         523          1.0000000000
      1568       523  TIP3  H1           -2.3916035115       11.8907855128      -13.6459385721  CLST         523          1.0000000000
      1569       523  TIP3  H2           -3.4813635198       12.5155025443      -14.2510917358  CLST         523          1.0000000000
      1570       524  TIP3  OH2           6.9308721378        3.8858120468       -1.8379687612  CLST         524          1.0000000000
      1571       524  TIP3  H1            7.2135199924        3.0896234941       -2.3684981194  CLST         524          1.0000000000
      1572       524  TIP3  H2            5.9659413591        3.9425094625       -2.0256796161  CLST         524          1.0000000000
      1573       525  TIP3  OH2           0.4123634553        6.8916392085       -2.4295161961  CLST         525          1.0000000000
      1574       525  TIP3  H1            0.6326599903        6.4127400384       -3.2551731397  CLST         525          1.0000000000
      1575       525  TIP3  H2            0.2107867866        6.0444043415       -1.9155211534  CLST         525          1.0000000000
      1576       526  TIP3  OH2           6.9501393793       -5.4738291676       -3.6383764111  CLST         526          1.0000000000
      1577       526  TIP3  H1            7.0173742750       -5.7675127536       -4.5859534474  CLST         526          1.0000000000
      1578       526  TIP3  H2            7.9081020115       -5.5535080971       -3.2890992423  CLST         526          1.0000000000
      1579       527  TIP3  OH2           0.3472965743        7.3492593628        3.8622247394  CLST         527          1.0000000000
      1580       527  TIP3  H1            1.1448583478        7.3336378212        4.5230482165  CLST         527          1.0000000000
      1581       527  TIP3  H2            0.2057650606        8.2791035110        3.9033834761  CLST         527          1.0000000000
      1582       528  TIP3  OH2          -2.6552510335        9.8213183559        8.6913062854  CLST         528          1.0000000000
      1583       528  TIP3  H1           -3.0029086568        9.6146083725        9.5833231324  CLST         528          1.0000000000
      1584       528  TIP3  H2           -3.4555665513       10.2851667839        8.3439436815  CLST         528          1.0000000000
      1585       529  TIP3  OH2          -5.9590061393       12.3353283978       -9.4377112530  CLST         529          1.0000000000
      1586       529  TIP3  H1           -5.1541889244       12.6937403606       -9.1793429646  CLST         529          1.0000000000
      1587       529  TIP3  H2           -5.8581160309       12.0998160310      -10.3771560053  CLST         529          1.0000000000
      1588       530  TIP3  OH2          -4.3974892807       -5.7026183221      -13.1397492574  CLST         530          1.0000000000
      1589       530  TIP3  H1           -4.3545033981       -6.7008017767      -12.9871293503  CLST         530          1.0000000000
      1590       530  TIP3  H2           -3.4565046600       -5.4926069254      -13.2713447200  CLST         530          1.0000000000
      1591       531  TIP3  OH2         -11.4420313608       -0.2311073452       10.4785571245  CLST         531          1.0000000000
      1592       531  TIP3  H1          -11.9842329035       -0.3026483551       11.1583155203  CLST         531          1.0000000000
      1593       531  TIP3  H2          -11.6807092528       -0.9253324367        9.8295121693  CLST         531          1.0000000000
      1594       532  TIP3  OH2         -12.0103776435       -2.9825059147       -8.7594556521  CLST         532          1.0000000000
      1595       532  TIP3  H1          -12.9112303947       -3.9799781971       -8.5644975943  CLST         532          1.0000000000
      1596       532  TIP3  H2          -12.0043074333       -3.6084040368      -10.0954331433  CLST         532          1.0000000000
      1597       533  TIP3  OH2          -2.8126466935       -7.1354777409        8.5179991807  CLST         533          1.0000000000
      1598       533  TIP3  H1           -2.0378423900       -7.7243200951        8.4994170679  CLST         533          1.0000000000
      1599       533  TIP3  H2           -2.3639059054       -6.2556290259        8.3475709862  CLST         533          1.0000000000
      1600       534  TIP3  OH2           0.5007233301      -13.2167655204       -7.7463825027  CLST         534          1.0000000000
      1601       534  TIP3  H1            0.9410399478      -13.0600324658       -8.5847820024  CLST         534          1.0000000000
      1602       534  TIP3  H2            1.3532274399      -13.2917444898       -7.2203783284  CLST         534          1.0000000000
      1603       535  TIP3  OH2           2.8941554069        3.1201491616       -7.4398119931  CLST         535          1.0000000000
      1604       535  TIP3  H1            3.4623202546        2.5032219786       -6.8915558990  CLST         535          1.0000000000
      1605       535  TIP3  H2            1.9813588653        2.7695372016       -7.2536634675  CLST         535          1.0000000000
      1606       536  TIP3  OH2           7.9258408572      -12.6210661778       -3.3390246552  CLST         536          1.0000000000
      1607       536  TIP3  H1            7.2182383762      -12.7182547278       -3.9434218283  CLST         536          1.0000000000
      1608       536  TIP3  H2            8.4450320818      -13.4034015729       -3.1727744710  CLST         536          1.0000000000
      1609       537  TIP3  OH2          11.8231329254       -2.8851848248       -7.3250056920  CLST         537          1.0000000000
      1610       537  TIP3  H1           11.5292565106       -2.0195922682       -7.0096747836  CLST         537          1.0000000000
      1611       537  TIP3  H2           12.7831954778       -2.6522064706       -7.3448341263  CLST         537          1.0000000000
      1612       538  TIP3  OH2          -5.0749506261      -10.7643324621        0.6856033979  CLST         538          1.0000000000
      1613       538  TIP3  H1           -4.3105099936      -11.0344027654        1.2486367290  CLST         538          1.0000000000
      1614       538  TIP3  H2           -4.8339926309       -9.8095725746        0.4839996781  CLST         538          1.0000000000
      1615       539  TIP3  OH2           2.3230366087       -5.0085084164        1.0090809209  CLST         539          1.0000000000
      1616       539  TIP3  H1            1.3744308668       -5.4021779951        1.1343202426  CLST         539          1.0000000000
      1617       539  TIP3  H2            2.2000782574       -5.1684437984        0.0604593156  CLST         539          1.0000000000
      1618       540  TIP3  OH2           4.0761805163       -6.6777792238        4.7460740464  CLST         540          1.0000000000
      1619       540  TIP3  H1            3.7855457646       -7.6401283642        4.9361416421  CLST         540          1.0000000000
      1620       540  TIP3  H2            4.2474002097       -6.8205840259        3.8196108229  CLST         540          1.0000000000
      1621       541  TIP3  OH2          -5.5152697884       10.4188124803        2.2706152461  CLST         541          1.0000000000
      1622       541  TIP3  H1           -6.0131630314       10.4640946315        3.1683898169  CLST         541          1.0000000000
      1623       541  TIP3  H2           -4.8923922453       11.1771946488        2.4005146742  CLST         541          1.0000000000
      1624       542  TIP3  OH2         -10.9456876053       14.5446812496        5.6388498769  CLST         542          1.0000000000
      1625       542  TIP3  H1          -10.8682920873       15.3771892674        5.2855027480  CLST         542          1.0000000000
      1626       542  TIP3  H2          -10.7494157439       13.9594906014        4.8042125457  CLST         542          1.0000000000
      1627       543  TIP3  OH2         -10.5960988942       11.3931981673       -2.3725303714  CLST         543          1.0000000000
      1628       543  TIP3  H1          -11.4338073772       10.9263808532       -2.4145637442  CLST         543          1.0000000000
      1629       543  TIP3  H2          -10.4888223336       11.7726681579       -3.2511724197  CLST         543          1.0000000000
      1630       544  TIP3  OH2          -0.5856001322        5.5845349550       -5.6254521995  CLST         544          1.0000000000
      1631       544  TIP3  H1           -0.5885161659        5.2475026338       -6.5805711717  CLST         544          1.0000000000
      1632       544  TIP3  H2            0.2061802838        5.0994273602       -5.3043190185  CLST         544          1.0000000000
      1633       545  TIP3  OH2          -7.9166319899        2.4579478107      -12.5607400369  CLST         545          1.0000000000
      1634       545  TIP3  H1           -8.0433556197        2.1733410159      -13.4743026130  CLST         545          1.0000000000
      1635       545  TIP3  H2           -8.5768491862        3.2240009004      -12.5734189794  CLST         545          1.0000000000
      1636       546  TIP3  OH2           3.7658990442       11.0618013046       -2.1651668674  CLST         546          1.0000000000
      1637       546  TIP3  H1            3.3347696739       10.1009681222       -2.1917834135  CLST         546          1.0000000000
      1638       546  TIP3  H2            4.2715432013       10.9323475416       -1.1948243688  CLST         546          1.0000000000
      1639       547  TIP3  OH2          -3.7001325823       -2.0529091358      -11.1671474260  CLST         547          1.0000000000
      1640       547  TIP3  H1           -3.6377002387       -2.1886925695      -10.1840017302  CLST         547          1.0000000000
      1641       547  TIP3  H2           -4.1178666292       -1.1621084274      -11.1763407458  CLST         547          1.0000000000
      1642       548  TIP3  OH2          10.5657719672        2.2257735249        1.4042279953  CLST         548          1.0000000000
      1643       548  TIP3  H1            9.5927190521        2.0668500862        1.4011060026  CLST         548          1.0000000000
      1644       548  TIP3  H2           10.6517589809        2.9925783755        2.0764492214  CLST         548          1.0000000000
