* Geometry rescue: EQUI at step 20000
*
        1644  EXT
         1         1  TIP3  OH2           4.3733827145       -1.6017293473       -2.2521466027  CLST           1          1.0000000000
         2         1  TIP3  H1            4.5376127805       -1.7975889828       -1.2900822097  CLST           1          1.0000000000
         3         1  TIP3  H2            5.2293331150       -1.9382576328       -2.5888357177  CLST           1          1.0000000000
         4         2  TIP3  OH2          10.7695740064        7.4766050401      -11.7277785467  CLST           2          1.0000000000
         5         2  TIP3  H1           11.0671417004        7.1340742980      -10.8572106647  CLST           2          1.0000000000
         6         2  TIP3  H2            9.8110974186        7.2803790654      -11.5489093087  CLST           2          1.0000000000
         7         3  TIP3  OH2           8.6758074963        5.1993201141       -4.2522447956  CLST           3          1.0000000000
         8         3  TIP3  H1            9.0788254043        5.5165278409       -3.3587185092  CLST           3          1.0000000000
         9         3  TIP3  H2            8.3118888173        6.1249991018       -4.4625523604  CLST           3          1.0000000000
        10         4  TIP3  OH2          -2.9067852283        6.7382211007       10.0350319806  CLST           4          1.0000000000
        11         4  TIP3  H1           -3.6521951292        7.0675276678        9.3939516276  CLST           4          1.0000000000
        12         4  TIP3  H2           -3.1947037464        7.3942699838       10.7134149732  CLST           4          1.0000000000
        13         5  TIP3  OH2           9.1921988838        6.2501770580       10.5570191605  CLST           5          1.0000000000
        14         5  TIP3  H1            8.6511721844        5.6318915237       11.1661147770  CLST           5          1.0000000000
        15         5  TIP3  H2            8.9055806217        5.8362127685        9.7128523904  CLST           5          1.0000000000
        16         6  TIP3  OH2          10.4626631296       -5.9563393890      -11.7554256422  CLST           6          1.0000000000
        17         6  TIP3  H1           10.9331746267       -5.5270274350      -10.9808513965  CLST           6          1.0000000000
        18         6  TIP3  H2           10.4364291724       -5.0913663686      -12.2864124773  CLST           6          1.0000000000
        19         7  TIP3  OH2         -12.4006622310        8.3213417010        5.7691817855  CLST           7          1.0000000000
        20         7  TIP3  H1          -12.6295085151        9.2685873456        6.0261966807  CLST           7          1.0000000000
        21         7  TIP3  H2          -11.5431850688        8.2891462216        6.2574214530  CLST           7          1.0000000000
        22         8  TIP3  OH2          -4.3868945783       -8.2252999034        0.6188143729  CLST           8          1.0000000000
        23         8  TIP3  H1           -4.9897275490       -7.5556398765        0.8855546421  CLST           8          1.0000000000
        24         8  TIP3  H2           -3.6342629626       -7.7986530828        0.1498872902  CLST           8          1.0000000000
        25         9  TIP3  OH2           2.6415580723      -14.1678289317       -4.0997481964  CLST           9          1.0000000000
        26         9  TIP3  H1            1.6711581629      -14.1954704989       -3.8882723175  CLST           9          1.0000000000
        27         9  TIP3  H2            2.9032091605      -13.8243272895       -3.2236521181  CLST           9          1.0000000000
        28        10  TIP3  OH2         -14.0434866793       -1.2125867767       -0.2693676849  CLST          10          1.0000000000
        29        10  TIP3  H1          -13.7064789441       -1.4440015608       -1.1988551216  CLST          10          1.0000000000
        30        10  TIP3  H2          -14.0874677555       -2.0456467715        0.1640975597  CLST          10          1.0000000000
        31        11  TIP3  OH2           7.0859673982        6.6810082000       -1.8437075024  CLST          11          1.0000000000
        32        11  TIP3  H1            7.1815976228        5.7093993129       -2.1381500009  CLST          11          1.0000000000
        33        11  TIP3  H2            6.9284686664        7.0116452163       -2.7512318319  CLST          11          1.0000000000
        34        12  TIP3  OH2          -8.2697105283        2.7153063548        1.8501594916  CLST          12          1.0000000000
        35        12  TIP3  H1           -7.7574432112        2.8253618989        1.0025839971  CLST          12          1.0000000000
        36        12  TIP3  H2           -9.1295820079        2.5727828835        1.3345792801  CLST          12          1.0000000000
        37        13  TIP3  OH2           7.6830622717        2.4434349757        2.0586681899  CLST          13          1.0000000000
        38        13  TIP3  H1            7.2745391246        3.2239136741        1.6346234074  CLST          13          1.0000000000
        39        13  TIP3  H2            7.7722571182        2.7872677388        2.9782991690  CLST          13          1.0000000000
        40        14  TIP3  OH2          -0.2715982417        2.1040092525        7.9717316309  CLST          14          1.0000000000
        41        14  TIP3  H1           -0.0267109837        2.9354311854        7.5003943450  CLST          14          1.0000000000
        42        14  TIP3  H2            0.5097561376        1.5533140956        7.6776803488  CLST          14          1.0000000000
        43        15  TIP3  OH2          -8.9612754841       -3.8012029131      -12.7098918242  CLST          15          1.0000000000
        44        15  TIP3  H1           -8.2231139643       -3.8985222309      -13.3484249688  CLST          15          1.0000000000
        45        15  TIP3  H2           -8.4486976038       -4.4007605592      -12.0754056423  CLST          15          1.0000000000
        46        16  TIP3  OH2          -3.7732205523      -12.7604565964       -6.2559001956  CLST          16          1.0000000000
        47        16  TIP3  H1           -4.3485578431      -12.9126101755       -5.4088035616  CLST          16          1.0000000000
        48        16  TIP3  H2           -2.8830284641      -12.8885002627       -5.7543422345  CLST          16          1.0000000000
        49        17  TIP3  OH2           4.8699781537      -13.4304201386       -8.4894237977  CLST          17          1.0000000000
        50        17  TIP3  H1            5.3521261827      -13.5165999988       -7.6582250915  CLST          17          1.0000000000
        51        17  TIP3  H2            3.9624696699      -13.4427310343       -8.0355284545  CLST          17          1.0000000000
        52        18  TIP3  OH2         -11.6528791228       -6.6495784138       -1.5079858793  CLST          18          1.0000000000
        53        18  TIP3  H1          -11.9598983402       -5.7518270046       -1.8588061269  CLST          18          1.0000000000
        54        18  TIP3  H2          -11.8005287998       -7.1196780778       -2.4114259026  CLST          18          1.0000000000
        55        19  TIP3  OH2          11.0376751736       -0.1106217136        9.5734172926  CLST          19          1.0000000000
        56        19  TIP3  H1           10.4509389536       -0.8016929318        9.8862399213  CLST          19          1.0000000000
        57        19  TIP3  H2           11.0145055981       -0.2523096470        8.5986683607  CLST          19          1.0000000000
        58        20  TIP3  OH2         -13.3752099443        1.5707915800        2.7505888486  CLST          20          1.0000000000
        59        20  TIP3  H1          -13.0252806130        1.3087309448        1.8395494123  CLST          20          1.0000000000
        60        20  TIP3  H2          -14.3261414232        1.5599803431        2.5670845971  CLST          20          1.0000000000
        61        21  TIP3  OH2         -10.0506730250       12.7033642090       -5.2257649646  CLST          21          1.0000000000
        62        21  TIP3  H1          -10.4128243188       13.3726824249       -5.7229116580  CLST          21          1.0000000000
        63        21  TIP3  H2           -9.3436416276       12.4091538519       -5.7666012751  CLST          21          1.0000000000
        64        22  TIP3  OH2           2.7666176592       12.1940654638       -6.5442804360  CLST          22          1.0000000000
        65        22  TIP3  H1            2.9545163030       11.4485737912       -5.9824723706  CLST          22          1.0000000000
        66        22  TIP3  H2            3.0639073367       12.8973201960       -5.9830646161  CLST          22          1.0000000000
        67        23  TIP3  OH2           5.5519266430       -1.7560719681       11.6090310352  CLST          23          1.0000000000
        68        23  TIP3  H1            5.1720190672       -2.3767587691       10.9309168602  CLST          23          1.0000000000
        69        23  TIP3  H2            5.0076815085       -0.9891133728       11.4054249102  CLST          23          1.0000000000
        70        24  TIP3  OH2          -0.1105460937        1.0444793795        4.4223161432  CLST          24          1.0000000000
        71        24  TIP3  H1            0.4737889600        0.8523446318        5.2058475383  CLST          24          1.0000000000
        72        24  TIP3  H2           -0.8968785633        0.5345539979        4.8222995781  CLST          24          1.0000000000
        73        25  TIP3  OH2           3.3432898943        2.0662746361       -2.6576641605  CLST          25          1.0000000000
        74        25  TIP3  H1            3.6666871477        1.7292964011       -1.7946711717  CLST          25          1.0000000000
        75        25  TIP3  H2            3.5965705031        3.0071958698       -2.6640469962  CLST          25          1.0000000000
        76        26  TIP3  OH2          11.4529775617        5.5126774530       -6.5004910110  CLST          26          1.0000000000
        77        26  TIP3  H1           10.6370609108        5.2324188067       -6.9711536978  CLST          26          1.0000000000
        78        26  TIP3  H2           11.1316870811        6.2517252049       -5.9334521254  CLST          26          1.0000000000
        79        27  TIP3  OH2         -10.2644715806        7.4345206959       -5.3487897667  CLST          27          1.0000000000
        80        27  TIP3  H1          -10.4842009011        7.6984402675       -4.4253865588  CLST          27          1.0000000000
        81        27  TIP3  H2          -10.8854674120        7.8869110358       -5.9092459018  CLST          27          1.0000000000
        82        28  TIP3  OH2          -4.0961536546      -10.2066100949       -6.8982126105  CLST          28          1.0000000000
        83        28  TIP3  H1           -4.0957259974      -11.1600335279       -6.5903875786  CLST          28          1.0000000000
        84        28  TIP3  H2           -4.9708453857       -9.8881078967       -6.6255418511  CLST          28          1.0000000000
        85        29  TIP3  OH2         -10.7710234614        7.6652216239       -2.5361741399  CLST          29          1.0000000000
        86        29  TIP3  H1          -10.1802506842        8.3337796959       -1.9736508626  CLST          29          1.0000000000
        87        29  TIP3  H2          -11.6677131119        8.1978133511       -2.2677542944  CLST          29          1.0000000000
        88        30  TIP3  OH2           8.6765470401      -10.4210950572       -2.0840109318  CLST          30          1.0000000000
        89        30  TIP3  H1            9.1899150198      -11.0806313408       -1.5281901023  CLST          30          1.0000000000
        90        30  TIP3  H2            8.3495380567      -11.1586529416       -2.7323450325  CLST          30          1.0000000000
        91        31  TIP3  OH2          -9.6884989740       -1.3057511645      -13.1011441483  CLST          31          1.0000000000
        92        31  TIP3  H1           -9.5998367880       -2.2811418174      -12.8841810391  CLST          31          1.0000000000
        93        31  TIP3  H2           -9.5323961235       -0.9300596559      -12.1989242822  CLST          31          1.0000000000
        94        32  TIP3  OH2          -8.7771954801       -6.6497519162        6.9940425740  CLST          32          1.0000000000
        95        32  TIP3  H1           -9.6708020079       -6.5428050935        7.3623963776  CLST          32          1.0000000000
        96        32  TIP3  H2           -8.8241559737       -6.0715259374        6.1799516118  CLST          32          1.0000000000
        97        33  TIP3  OH2          11.7682537164       -8.9294217098        8.8723720898  CLST          33          1.0000000000
        98        33  TIP3  H1           11.7246365735       -9.8450352035        9.2272286367  CLST          33          1.0000000000
        99        33  TIP3  H2           11.2748986835       -8.4474161999        9.5636028733  CLST          33          1.0000000000
       100        34  TIP3  OH2           4.3134908705       -3.9546671969        3.0314822728  CLST          34          1.0000000000
       101        34  TIP3  H1            3.7616398268       -4.0659120058        2.2315579672  CLST          34          1.0000000000
       102        34  TIP3  H2            4.0994303660       -4.7584625630        3.5510476014  CLST          34          1.0000000000
       103        35  TIP3  OH2           6.1771422304       -0.8343717441        4.4160112499  CLST          35          1.0000000000
       104        35  TIP3  H1            5.3340156949       -1.1010439501        4.8469914358  CLST          35          1.0000000000
       105        35  TIP3  H2            6.6737575836       -0.2773158910        5.0869586212  CLST          35          1.0000000000
       106        36  TIP3  OH2          -1.6109263816        1.3140355570        2.1825949018  CLST          36          1.0000000000
       107        36  TIP3  H1           -2.1382034843        0.6712335083        2.7228141317  CLST          36          1.0000000000
       108        36  TIP3  H2           -0.9525750468        1.3644075530        2.9227535986  CLST          36          1.0000000000
       109        37  TIP3  OH2          -4.3344502811       -8.2520503580      -12.9884202870  CLST          37          1.0000000000
       110        37  TIP3  H1           -5.0113425077       -8.4204560954      -12.3169778468  CLST          37          1.0000000000
       111        37  TIP3  H2           -4.0494625756       -9.1355716402      -13.2969277691  CLST          37          1.0000000000
       112        38  TIP3  OH2          -3.0144127687        2.0940888682       -4.2163803451  CLST          38          1.0000000000
       113        38  TIP3  H1           -2.9974379600        3.0011040606       -4.6300189471  CLST          38          1.0000000000
       114        38  TIP3  H2           -3.3908030863        1.5586011043       -4.9143923272  CLST          38          1.0000000000
       115        39  TIP3  OH2           1.8114366391      -10.8882850044        2.0565643265  CLST          39          1.0000000000
       116        39  TIP3  H1            1.5636290158      -11.3781648761        2.8401425743  CLST          39          1.0000000000
       117        39  TIP3  H2            0.9362871617      -10.7305406051        1.6879745589  CLST          39          1.0000000000
       118        40  TIP3  OH2          -7.0683044294       12.5947038139        8.0864630593  CLST          40          1.0000000000
       119        40  TIP3  H1           -7.9974282588       12.9319860187        7.8401418392  CLST          40          1.0000000000
       120        40  TIP3  H2           -6.5341145928       12.7698760884        7.3335121320  CLST          40          1.0000000000
       121        41  TIP3  OH2           9.8031298388       -2.1048507368      -11.1025598737  CLST          41          1.0000000000
       122        41  TIP3  H1            9.0511508316       -2.7306056845      -10.8932087931  CLST          41          1.0000000000
       123        41  TIP3  H2            9.4484156607       -1.2676561053      -10.8153942212  CLST          41          1.0000000000
       124        42  TIP3  OH2           9.6927070788       10.3879576225      -10.7699280968  CLST          42          1.0000000000
       125        42  TIP3  H1           10.5085924674       10.2027781358      -10.2698945649  CLST          42          1.0000000000
       126        42  TIP3  H2           10.1509628362       10.3171870094      -11.6826071397  CLST          42          1.0000000000
       127        43  TIP3  OH2          11.9563560178       12.6314794998        7.6550629963  CLST          43          1.0000000000
       128        43  TIP3  H1           12.5712740317       13.2895160236        7.4700085385  CLST          43          1.0000000000
       129        43  TIP3  H2           12.4982654898       11.8381301092        8.0883703287  CLST          43          1.0000000000
       130        44  TIP3  OH2           7.6837279709        1.1432773161        5.9248568541  CLST          44          1.0000000000
       131        44  TIP3  H1            7.9007665665        1.5750607672        6.8444977505  CLST          44          1.0000000000
       132        44  TIP3  H2            7.2676257019        1.9688674765        5.5396477072  CLST          44          1.0000000000
       133        45  TIP3  OH2           7.9218540405        9.3983474337        7.4417163409  CLST          45          1.0000000000
       134        45  TIP3  H1            7.4311692060        8.5323636438        7.5376066662  CLST          45          1.0000000000
       135        45  TIP3  H2            8.7590066091        9.3154870645        7.9765130289  CLST          45          1.0000000000
       136        46  TIP3  OH2          -5.5500949669       -3.1726666756      -13.0701025080  CLST          46          1.0000000000
       137        46  TIP3  H1           -5.2089808209       -4.0869134875      -13.2871698242  CLST          46          1.0000000000
       138        46  TIP3  H2           -4.7966236700       -2.9005998365      -12.5069133728  CLST          46          1.0000000000
       139        47  TIP3  OH2           1.4419637121       -6.4448655909      -11.1014250326  CLST          47          1.0000000000
       140        47  TIP3  H1            1.8600209123       -5.5598911359      -10.9707052662  CLST          47          1.0000000000
       141        47  TIP3  H2            1.5659591304       -6.5021007397      -12.0520226650  CLST          47          1.0000000000
       142        48  TIP3  OH2           5.1158715715        5.6045034172        1.0603381200  CLST          48          1.0000000000
       143        48  TIP3  H1            6.0100507583        5.2985209575        0.7305745410  CLST          48          1.0000000000
       144        48  TIP3  H2            5.4057395157        6.5777139143        1.1363836204  CLST          48          1.0000000000
       145        49  TIP3  OH2          -3.3110455014      -10.6083263608      -13.7306107789  CLST          49          1.0000000000
       146        49  TIP3  H1           -2.4315249578      -10.9163075542      -13.8400644362  CLST          49          1.0000000000
       147        49  TIP3  H2           -3.7062836474      -11.1072461424      -12.9540656183  CLST          49          1.0000000000
       148        50  TIP3  OH2           2.8790633053        3.7633783610        5.9195812449  CLST          50          1.0000000000
       149        50  TIP3  H1            2.0793741999        4.2586639826        6.2846395999  CLST          50          1.0000000000
       150        50  TIP3  H2            2.5703352321        3.6078104480        5.0075305044  CLST          50          1.0000000000
       151        51  TIP3  OH2          -6.4236402340      -10.0607218540       -4.6827945345  CLST          51          1.0000000000
       152        51  TIP3  H1           -6.4666246106       -9.9077196551       -3.7302252600  CLST          51          1.0000000000
       153        51  TIP3  H2           -6.5027742952      -10.9969708336       -4.8041202324  CLST          51          1.0000000000
       154        52  TIP3  OH2           9.0265573865       -5.6275460217       -0.1928376057  CLST          52          1.0000000000
       155        52  TIP3  H1            9.2760986012       -5.3237587346       -1.0831918093  CLST          52          1.0000000000
       156        52  TIP3  H2            8.9371827936       -4.7331884355        0.1748291741  CLST          52          1.0000000000
       157        53  TIP3  OH2          -9.6742518923        9.9319754152      -12.4419638792  CLST          53          1.0000000000
       158        53  TIP3  H1           -9.9556973178       10.1608025182      -13.2841814888  CLST          53          1.0000000000
       159        53  TIP3  H2           -8.7863178070        9.5083592469      -12.5756925142  CLST          53          1.0000000000
       160        54  TIP3  OH2           0.4899212149       -2.9957668871       -9.4049573725  CLST          54          1.0000000000
       161        54  TIP3  H1            1.4071989675       -3.2369197964       -9.5963394319  CLST          54          1.0000000000
       162        54  TIP3  H2            0.2627064773       -2.4383955752      -10.2049284022  CLST          54          1.0000000000
       163        55  TIP3  OH2           2.9014400417       -4.2130583077      -14.5048235838  CLST          55          1.0000000000
       164        55  TIP3  H1            3.2352427452       -5.0952928517      -14.3005311396  CLST          55          1.0000000000
       165        55  TIP3  H2            2.9404238842       -4.0067602053      -15.4325333853  CLST          55          1.0000000000
       166        56  TIP3  OH2         -10.1697223876       11.1757999302        5.7294249993  CLST          56          1.0000000000
       167        56  TIP3  H1          -10.1061150492       10.3325161707        6.2196707635  CLST          56          1.0000000000
       168        56  TIP3  H2          -10.3892851783       10.9098108447        4.8362655138  CLST          56          1.0000000000
       169        57  TIP3  OH2           1.7769253199      -13.3796106782        0.4210008383  CLST          57          1.0000000000
       170        57  TIP3  H1            2.1733580708      -12.5984079096        0.8780872412  CLST          57          1.0000000000
       171        57  TIP3  H2            2.4361375397      -13.4007720364       -0.2781572923  CLST          57          1.0000000000
       172        58  TIP3  OH2         -13.0564948648       10.6143313140        7.0624567550  CLST          58          1.0000000000
       173        58  TIP3  H1          -12.6393186053       11.4365043401        6.7323160789  CLST          58          1.0000000000
       174        58  TIP3  H2          -12.7628293034       10.4776862927        7.9771021439  CLST          58          1.0000000000
       175        59  TIP3  OH2         -11.4857215218       -2.6800560274        5.4490861910  CLST          59          1.0000000000
       176        59  TIP3  H1          -11.8858711251       -2.5530152591        6.3585102117  CLST          59          1.0000000000
       177        59  TIP3  H2          -11.5198744539       -1.6661746151        5.2579997284  CLST          59          1.0000000000
       178        60  TIP3  OH2           1.2166658815        9.5673261424        8.6295624328  CLST          60          1.0000000000
       179        60  TIP3  H1            0.4509557214        8.9941097871        8.3302280068  CLST          60          1.0000000000
       180        60  TIP3  H2            1.7915593299        8.7859334051        8.9221990315  CLST          60          1.0000000000
       181        61  TIP3  OH2           2.7545293132       -0.5543657213       -5.4576538366  CLST          61          1.0000000000
       182        61  TIP3  H1            3.2341469165       -1.4467987338       -5.3595775853  CLST          61          1.0000000000
       183        61  TIP3  H2            2.1418796677       -0.7494449054       -6.1793022339  CLST          61          1.0000000000
       184        62  TIP3  OH2           7.9985269807        8.5776941069       12.3858661204  CLST          62          1.0000000000
       185        62  TIP3  H1            8.0455153624        7.7698103097       11.8838251536  CLST          62          1.0000000000
       186        62  TIP3  H2            8.2436518904        9.3293899797       11.7593037774  CLST          62          1.0000000000
       187        63  TIP3  OH2           4.6292111314       -7.1710788664      -10.2519450155  CLST          63          1.0000000000
       188        63  TIP3  H1            3.7989888691       -7.0288548924      -10.7388296962  CLST          63          1.0000000000
       189        63  TIP3  H2            5.1553684831       -7.6347096252      -10.9821487095  CLST          63          1.0000000000
       190        64  TIP3  OH2          -2.3024696467       11.7660780844        5.2942734472  CLST          64          1.0000000000
       191        64  TIP3  H1           -2.4947398937       10.7889130709        5.3436802586  CLST          64          1.0000000000
       192        64  TIP3  H2           -1.5628052420       11.7337286125        5.9797754114  CLST          64          1.0000000000
       193        65  TIP3  OH2          10.9804000569       -4.4330567822       -5.4211154760  CLST          65          1.0000000000
       194        65  TIP3  H1           11.3105992435       -4.1167682036       -6.2888694843  CLST          65          1.0000000000
       195        65  TIP3  H2           10.3350645094       -3.7314586578       -5.3078371359  CLST          65          1.0000000000
       196        66  TIP3  OH2           6.1324122772       -9.8252131573        9.2506743295  CLST          66          1.0000000000
       197        66  TIP3  H1            5.4479053003       -9.5762443381        8.6019694958  CLST          66          1.0000000000
       198        66  TIP3  H2            6.5666271965       -8.8953332405        9.2787102286  CLST          66          1.0000000000
       199        67  TIP3  OH2         -11.5887927017       -7.5205086548       -3.9270138582  CLST          67          1.0000000000
       200        67  TIP3  H1          -10.8629615089       -6.9495644383       -4.2369101750  CLST          67          1.0000000000
       201        67  TIP3  H2          -11.5755370916       -8.2533585918       -4.5562577903  CLST          67          1.0000000000
       202        68  TIP3  OH2          -0.6098171171       -5.3985344233        5.3611240776  CLST          68          1.0000000000
       203        68  TIP3  H1            0.3505631243       -5.5847205302        5.5231261107  CLST          68          1.0000000000
       204        68  TIP3  H2           -0.8541648549       -5.2152014022        6.3027972800  CLST          68          1.0000000000
       205        69  TIP3  OH2           8.0323993848       11.6182481079       -8.8166367021  CLST          69          1.0000000000
       206        69  TIP3  H1            8.4921132214       11.2234124919       -9.5804769936  CLST          69          1.0000000000
       207        69  TIP3  H2            8.8626683327       11.6958638181       -8.2434584517  CLST          69          1.0000000000
       208        70  TIP3  OH2          -1.0471381523      -12.3808062939       -0.4746701953  CLST          70          1.0000000000
       209        70  TIP3  H1           -0.1009064670      -12.6579366203       -0.4109838623  CLST          70          1.0000000000
       210        70  TIP3  H2           -1.2907329724      -12.6070005000        0.4539321844  CLST          70          1.0000000000
       211        71  TIP3  OH2         -10.1708052742       -7.4201777495        2.1104793724  CLST          71          1.0000000000
       212        71  TIP3  H1          -10.6554187957       -6.7004872476        2.6106397968  CLST          71          1.0000000000
       213        71  TIP3  H2          -10.6668279903       -7.5584673603        1.3111393437  CLST          71          1.0000000000
       214        72  TIP3  OH2           0.1815893568        2.0391444302       -1.6183137692  CLST          72          1.0000000000
       215        72  TIP3  H1           -0.2509262066        1.1283992490       -1.6137553564  CLST          72          1.0000000000
       216        72  TIP3  H2            0.9545039356        1.7855786204       -2.1629301621  CLST          72          1.0000000000
       217        73  TIP3  OH2          -9.6298801264       13.1095024347        7.4810959927  CLST          73          1.0000000000
       218        73  TIP3  H1           -9.8239466170       12.4043788120        6.7562275596  CLST          73          1.0000000000
       219        73  TIP3  H2          -10.1739034908       13.8175667340        6.9911576998  CLST          73          1.0000000000
       220        74  TIP3  OH2           6.6339573045       -2.6863319992       -3.7378221589  CLST          74          1.0000000000
       221        74  TIP3  H1            6.6862992652       -3.6810042892       -3.4853972651  CLST          74          1.0000000000
       222        74  TIP3  H2            7.5240154610       -2.3890571021       -3.4699056560  CLST          74          1.0000000000
       223        75  TIP3  OH2           2.8649409125      -13.2596851514       -6.5841925637  CLST          75          1.0000000000
       224        75  TIP3  H1            3.0387838994      -12.3935273162       -6.0907159757  CLST          75          1.0000000000
       225        75  TIP3  H2            2.7366608610      -13.7691513351       -5.7308895718  CLST          75          1.0000000000
       226        76  TIP3  OH2           4.0212867540       -9.7396950885        1.2263945572  CLST          76          1.0000000000
       227        76  TIP3  H1            4.1442111960       -8.8115734223        1.5342629490  CLST          76          1.0000000000
       228        76  TIP3  H2            3.1166408037       -9.9846460272        1.5755652431  CLST          76          1.0000000000
       229        77  TIP3  OH2          10.3569820586       -8.2163887943       -2.6559906089  CLST          77          1.0000000000
       230        77  TIP3  H1            9.7338705428       -8.9946239253       -2.5427111572  CLST          77          1.0000000000
       231        77  TIP3  H2           10.1982387832       -8.0721818685       -3.6299869534  CLST          77          1.0000000000
       232        78  TIP3  OH2          10.6352010834       11.8292475371       -7.8797055163  CLST          78          1.0000000000
       233        78  TIP3  H1           11.2781093921       11.1419219045       -8.1414915957  CLST          78          1.0000000000
       234        78  TIP3  H2           11.0416782181       12.6737231007       -7.8962999129  CLST          78          1.0000000000
       235        79  TIP3  OH2          12.7904949482        0.5991836459        1.0844622568  CLST          79          1.0000000000
       236        79  TIP3  H1           13.4385391790        0.3118642870        1.5791371442  CLST          79          1.0000000000
       237        79  TIP3  H2           12.1904185506        1.2827521528        1.4598328624  CLST          79          1.0000000000
       238        80  TIP3  OH2          -7.5276160278        0.0839767464        6.6168521641  CLST          80          1.0000000000
       239        80  TIP3  H1           -7.4614914447        0.6498983731        5.8226590417  CLST          80          1.0000000000
       240        80  TIP3  H2           -6.6034000110       -0.2834850043        6.6515500338  CLST          80          1.0000000000
       241        81  TIP3  OH2          -7.4826965407      -10.8980006473        2.2155318926  CLST          81          1.0000000000
       242        81  TIP3  H1           -6.7149357400      -10.8519819853        1.6276756855  CLST          81          1.0000000000
       243        81  TIP3  H2           -7.0472909367      -11.1164257000        3.0831303243  CLST          81          1.0000000000
       244        82  TIP3  OH2          -1.6132558385       -9.9654652401       -6.3901697651  CLST          82          1.0000000000
       245        82  TIP3  H1           -2.6043678926       -9.7957581406       -6.3281062029  CLST          82          1.0000000000
       246        82  TIP3  H2           -1.5159547318      -10.8857568901       -6.1331401666  CLST          82          1.0000000000
       247        83  TIP3  OH2          12.2990742289       -8.6094206340        1.4819335660  CLST          83          1.0000000000
       248        83  TIP3  H1           12.6078371044       -8.0632426501        2.2809756927  CLST          83          1.0000000000
       249        83  TIP3  H2           11.3618567522       -8.3163800862        1.5145918441  CLST          83          1.0000000000
       250        84  TIP3  OH2          -3.5501149901       10.8691176367       -2.0737960697  CLST          84          1.0000000000
       251        84  TIP3  H1           -4.5385911625       10.8515809253       -2.5203256065  CLST          84          1.0000000000
       252        84  TIP3  H2           -3.4238252097       11.6755208085       -1.8117177133  CLST          84          1.0000000000
       253        85  TIP3  OH2           5.8341871961       -2.1592877944        0.0239968356  CLST          85          1.0000000000
       254        85  TIP3  H1            5.8548184325       -1.5902347926        0.8075694441  CLST          85          1.0000000000
       255        85  TIP3  H2            6.4873167933       -2.8546524795        0.1955966928  CLST          85          1.0000000000
       256        86  TIP3  OH2           6.7106251907       -8.4595750263        5.7189079654  CLST          86          1.0000000000
       257        86  TIP3  H1            6.1850605218       -8.8164398594        6.4750826210  CLST          86          1.0000000000
       258        86  TIP3  H2            6.3717200015       -7.5508381066        5.7468269981  CLST          86          1.0000000000
       259        87  TIP3  OH2          -1.1555662505       -3.6580618136       10.7106188614  CLST          87          1.0000000000
       260        87  TIP3  H1           -0.4026766440       -4.6692906348       11.7554330544  CLST          87          1.0000000000
       261        87  TIP3  H2           -2.0484801913       -4.0996854133       10.9834866630  CLST          87          1.0000000000
       262        88  TIP3  OH2          -0.7172369018        4.4741746362       -8.0181957119  CLST          88          1.0000000000
       263        88  TIP3  H1           -1.0885926745        3.5364587739       -7.8504646362  CLST          88          1.0000000000
       264        88  TIP3  H2           -1.5948650557        4.9016314471       -8.1650305963  CLST          88          1.0000000000
       265        89  TIP3  OH2           3.3738836931        0.8412350952      -11.8630589481  CLST          89          1.0000000000
       266        89  TIP3  H1            3.2865830229        1.5117451212      -12.4849853945  CLST          89          1.0000000000
       267        89  TIP3  H2            3.7135043247        0.0764885682      -12.2584977593  CLST          89          1.0000000000
       268        90  TIP3  OH2           5.5733078216       11.0763109893       -5.5030009382  CLST          90          1.0000000000
       269        90  TIP3  H1            5.2184352551       11.7944861492       -4.8863139362  CLST          90          1.0000000000
       270        90  TIP3  H2            5.5901377628       11.6968097509       -6.3269736046  CLST          90          1.0000000000
       271        91  TIP3  OH2           6.0010457101       -7.9373400495      -12.2611875188  CLST          91          1.0000000000
       272        91  TIP3  H1            6.4030908010       -8.8752560536      -12.1962895716  CLST          91          1.0000000000
       273        91  TIP3  H2            6.8216300661       -7.3824443233      -12.0422579141  CLST          91          1.0000000000
       274        92  TIP3  OH2           9.7858797520       11.5451504433        2.3507046342  CLST          92          1.0000000000
       275        92  TIP3  H1            9.9066795118       11.9000592107        3.2295477666  CLST          92          1.0000000000
       276        92  TIP3  H2            9.5783512350       12.3445142390        1.8702918208  CLST          92          1.0000000000
       277        93  TIP3  OH2          -8.7157009725        7.2138682516        2.5945481291  CLST          93          1.0000000000
       278        93  TIP3  H1           -8.6363462763        8.1762069376        2.5548521006  CLST          93          1.0000000000
       279        93  TIP3  H2           -7.7696941097        6.9317949431        2.6934506653  CLST          93          1.0000000000
       280        94  TIP3  OH2         -14.3242649692        6.4564727164        6.5271964064  CLST          94          1.0000000000
       281        94  TIP3  H1          -13.8734366529        7.3325962300        6.4536118747  CLST          94          1.0000000000
       282        94  TIP3  H2          -14.4459223034        6.3678590413        5.5301633224  CLST          94          1.0000000000
       283        95  TIP3  OH2           9.7914210440        5.7808533469       -1.8773939822  CLST          95          1.0000000000
       284        95  TIP3  H1            9.7989209566        6.0353311262       -0.9174905852  CLST          95          1.0000000000
       285        95  TIP3  H2           10.6094456299        5.1915175585       -1.7885501473  CLST          95          1.0000000000
       286        96  TIP3  OH2           9.5524600652      -11.0382135574       11.2077562315  CLST          96          1.0000000000
       287        96  TIP3  H1           10.2907866742      -11.2766391724       10.5957834358  CLST          96          1.0000000000
       288        96  TIP3  H2            9.1796990014      -11.9475167668       11.3333629168  CLST          96          1.0000000000
       289        97  TIP3  OH2          -7.6209289428        6.9023549443        8.5073333961  CLST          97          1.0000000000
       290        97  TIP3  H1           -7.3202502076        5.9553113238        8.7342897369  CLST          97          1.0000000000
       291        97  TIP3  H2           -8.5592807641        6.6179355774        8.3312438631  CLST          97          1.0000000000
       292        98  TIP3  OH2           5.9691915473        0.5347601259       -3.4509267327  CLST          98          1.0000000000
       293        98  TIP3  H1            6.6406531604        0.2195299312       -2.7667155541  CLST          98          1.0000000000
       294        98  TIP3  H2            5.2481147864       -0.0411166386       -3.1484830436  CLST          98          1.0000000000
       295        99  TIP3  OH2          -6.9169473386      -11.5104823133        4.8857211331  CLST          99          1.0000000000
       296        99  TIP3  H1           -7.3013299600      -11.1796732440        5.7213494926  CLST          99          1.0000000000
       297        99  TIP3  H2           -6.4012220937      -12.2702336581        5.2391205706  CLST          99          1.0000000000
       298       100  TIP3  OH2           2.3628619868        0.2627298642       -9.1712856764  CLST         100          1.0000000000
       299       100  TIP3  H1            2.6454017730        0.2648817370      -10.1130145416  CLST         100          1.0000000000
       300       100  TIP3  H2            2.6285612965        1.1960902345       -8.9993193548  CLST         100          1.0000000000
       301       101  TIP3  OH2          12.7012955372       -6.8639090754        3.8331428985  CLST         101          1.0000000000
       302       101  TIP3  H1           12.7159429672       -7.3602662882        4.7010882047  CLST         101          1.0000000000
       303       101  TIP3  H2           13.1693908377       -6.2063795480        4.0908286381  CLST         101          1.0000000000
       304       102  TIP3  OH2         -12.1883908426       10.4270389370        1.3535327359  CLST         102          1.0000000000
       305       102  TIP3  H1          -12.9300798475       10.0448058244        1.9518808523  CLST         102          1.0000000000
       306       102  TIP3  H2          -12.6023241172       10.0478521335        0.5175571564  CLST         102          1.0000000000
       307       103  TIP3  OH2          -0.5070250863       -9.5018097615        7.6720340258  CLST         103          1.0000000000
       308       103  TIP3  H1            0.0154692983       -9.4541824475        8.4964632589  CLST         103          1.0000000000
       309       103  TIP3  H2           -1.1892731482      -10.2010686841        7.9255088729  CLST         103          1.0000000000
       310       104  TIP3  OH2          -4.4249382085      -12.0379975755       10.0565976608  CLST         104          1.0000000000
       311       104  TIP3  H1           -5.0075427892      -11.5305731646       10.6857856377  CLST         104          1.0000000000
       312       104  TIP3  H2           -5.0387848216      -12.7236455789        9.7546279397  CLST         104          1.0000000000
       313       105  TIP3  OH2          -5.2759710745       10.6202145054      -11.5543656062  CLST         105          1.0000000000
       314       105  TIP3  H1           -4.8979984115       11.1163356466      -12.3125909110  CLST         105          1.0000000000
       315       105  TIP3  H2           -5.8745035960        9.9668425373      -11.9064875863  CLST         105          1.0000000000
       316       106  TIP3  OH2           7.4658005255       -8.1620200483       -1.2777720596  CLST         106          1.0000000000
       317       106  TIP3  H1            8.3260716213       -7.7316596609       -1.4119529263  CLST         106          1.0000000000
       318       106  TIP3  H2            7.6491018286       -9.1040719837       -1.4736625287  CLST         106          1.0000000000
       319       107  TIP3  OH2          -8.4023725982       -4.8312807019        5.0193222846  CLST         107          1.0000000000
       320       107  TIP3  H1           -8.8934557260       -4.2855712032        4.3805164045  CLST         107          1.0000000000
       321       107  TIP3  H2           -7.4621952821       -4.6168004252        4.8008609093  CLST         107          1.0000000000
       322       108  TIP3  OH2         -10.5791392343        2.0541520068        9.4196048299  CLST         108          1.0000000000
       323       108  TIP3  H1           -9.5912090613        1.8224666877        9.3585622384  CLST         108          1.0000000000
       324       108  TIP3  H2          -10.9141721204        1.2221384203        9.8347645932  CLST         108          1.0000000000
       325       109  TIP3  OH2           2.2311168998        7.0256878677        8.7611404040  CLST         109          1.0000000000
       326       109  TIP3  H1            1.6031335328        6.4848257826        9.2571659217  CLST         109          1.0000000000
       327       109  TIP3  H2            3.0675704863        6.4907867772        8.7815500199  CLST         109          1.0000000000
       328       110  TIP3  OH2           1.5644207600       12.1741542666      -11.1377583849  CLST         110          1.0000000000
       329       110  TIP3  H1            2.0184275523       13.0227602025      -11.0691496003  CLST         110          1.0000000000
       330       110  TIP3  H2            1.1238382843       12.1002128851      -10.2501285942  CLST         110          1.0000000000
       331       111  TIP3  OH2          11.6303830430      -11.6546281844        9.5143158829  CLST         111          1.0000000000
       332       111  TIP3  H1           12.5531666737      -11.9469820734        9.4372879542  CLST         111          1.0000000000
       333       111  TIP3  H2           11.2927568586      -12.5321375638        9.1678753445  CLST         111          1.0000000000
       334       112  TIP3  OH2           6.3909240784       -0.0490115490        1.7970658464  CLST         112          1.0000000000
       335       112  TIP3  H1            7.0858491971        0.6763899687        1.8070425942  CLST         112          1.0000000000
       336       112  TIP3  H2            6.1684990148       -0.1415214015        2.7493798811  CLST         112          1.0000000000
       337       113  TIP3  OH2         -12.8104410852        1.0661883620       -0.0204665204  CLST         113          1.0000000000
       338       113  TIP3  H1          -13.3497306258        0.1985018985        0.0275976480  CLST         113          1.0000000000
       339       113  TIP3  H2          -12.2943174682        0.8535571448       -0.8342002868  CLST         113          1.0000000000
       340       114  TIP3  OH2         -13.7919157268        3.5052961205       -0.3734322108  CLST         114          1.0000000000
       341       114  TIP3  H1          -13.5217601725        2.5751338360       -0.1503247102  CLST         114          1.0000000000
       342       114  TIP3  H2          -13.1911813062        3.5499710439       -1.1807554628  CLST         114          1.0000000000
       343       115  TIP3  OH2          -8.8703235568        0.1688960436      -10.7065287460  CLST         115          1.0000000000
       344       115  TIP3  H1           -8.2238328000        0.7806934408      -11.1501026297  CLST         115          1.0000000000
       345       115  TIP3  H2           -9.5493880848        0.8801796378      -10.7319925954  CLST         115          1.0000000000
       346       116  TIP3  OH2           6.8324482509       -5.5558650293        2.1079443718  CLST         116          1.0000000000
       347       116  TIP3  H1            7.6122202270       -5.6505565984        1.5247594151  CLST         116          1.0000000000
       348       116  TIP3  H2            6.8954620026       -4.6602042502        2.5054253823  CLST         116          1.0000000000
       349       117  TIP3  OH2          -0.6119809869        0.0411224527       12.5134580716  CLST         117          1.0000000000
       350       117  TIP3  H1           -0.1038340234       -0.8063325513       12.5967602813  CLST         117          1.0000000000
       351       117  TIP3  H2           -0.2486888675        0.4394553165       13.2919932202  CLST         117          1.0000000000
       352       118  TIP3  OH2           0.2541735456       -9.4699293020        4.9833319332  CLST         118          1.0000000000
       353       118  TIP3  H1           -0.0141906951       -9.4154098309        5.9354039073  CLST         118          1.0000000000
       354       118  TIP3  H2           -0.1811482619       -8.6832144735        4.5674059245  CLST         118          1.0000000000
       355       119  TIP3  OH2          -9.2258538434      -10.3971567238       -8.6986712484  CLST         119          1.0000000000
       356       119  TIP3  H1           -9.5313001011      -10.7630451774       -9.5661876358  CLST         119          1.0000000000
       357       119  TIP3  H2           -8.7610361088       -9.6055167836       -9.0451854211  CLST         119          1.0000000000
       358       120  TIP3  OH2           9.5788059392       -7.9365738959        1.2861731277  CLST         120          1.0000000000
       359       120  TIP3  H1            8.8476985427       -8.5900528616        1.0658895326  CLST         120          1.0000000000
       360       120  TIP3  H2            9.3798477490       -7.2472813477        0.6098554943  CLST         120          1.0000000000
       361       121  TIP3  OH2          -5.7112442805       -0.3878064716       -8.0698548681  CLST         121          1.0000000000
       362       121  TIP3  H1           -5.5221625950       -0.1975394169       -9.0254612301  CLST         121          1.0000000000
       363       121  TIP3  H2           -4.8737846706       -0.9928564945       -7.8938848048  CLST         121          1.0000000000
       364       122  TIP3  OH2          10.3655515087       12.1461453179        5.1196296160  CLST         122          1.0000000000
       365       122  TIP3  H1            9.5214663139       12.5731232622        5.4448998759  CLST         122          1.0000000000
       366       122  TIP3  H2           10.8308264387       12.2798093097        5.9745840553  CLST         122          1.0000000000
       367       123  TIP3  OH2          -7.3422541863       -5.4675386874      -11.1458014171  CLST         123          1.0000000000
       368       123  TIP3  H1           -6.6036714348       -5.9804166165      -11.5003845142  CLST         123          1.0000000000
       369       123  TIP3  H2           -7.3171551625       -5.5167175015      -10.1891389726  CLST         123          1.0000000000
       370       124  TIP3  OH2          -5.9870159845       -8.6437760365      -10.8538584831  CLST         124          1.0000000000
       371       124  TIP3  H1           -5.2177882208       -8.9205238458      -10.3048746109  CLST         124          1.0000000000
       372       124  TIP3  H2           -6.6117276883       -8.2561807264      -10.1788315671  CLST         124          1.0000000000
       373       125  TIP3  OH2         -13.5157596350        4.0119821308        8.0957226034  CLST         125          1.0000000000
       374       125  TIP3  H1          -13.3567682063        3.2375356975        7.5020913916  CLST         125          1.0000000000
       375       125  TIP3  H2          -13.8064957100        4.6979632108        7.5190304775  CLST         125          1.0000000000
       376       126  TIP3  OH2          -7.0514243527      -10.7076365237      -12.1959048113  CLST         126          1.0000000000
       377       126  TIP3  H1           -6.2494933567      -11.3033093419      -11.9785948102  CLST         126          1.0000000000
       378       126  TIP3  H2           -6.6371128718       -9.9260075474      -11.7427031274  CLST         126          1.0000000000
       379       127  TIP3  OH2          -7.4820376390      -11.6393282920       -7.1176500144  CLST         127          1.0000000000
       380       127  TIP3  H1           -7.9427529683      -12.4964619877       -7.1039933695  CLST         127          1.0000000000
       381       127  TIP3  H2           -8.1686555561      -11.1094613791       -7.6369711199  CLST         127          1.0000000000
       382       128  TIP3  OH2           9.9518046219        0.7378703730       -2.4163329898  CLST         128          1.0000000000
       383       128  TIP3  H1            9.0066434492        0.7232541950       -2.1157191172  CLST         128          1.0000000000
       384       128  TIP3  H2            9.8541092128        1.3656490456       -3.1955541571  CLST         128          1.0000000000
       385       129  TIP3  OH2          -7.8783807660        9.4981700539        1.0019295011  CLST         129          1.0000000000
       386       129  TIP3  H1           -7.0151361827        9.9941724896        1.1769668974  CLST         129          1.0000000000
       387       129  TIP3  H2           -7.4127546198        8.6903955553        0.6492313332  CLST         129          1.0000000000
       388       130  TIP3  OH2          -4.1793370064        4.0176711721        9.9702655861  CLST         130          1.0000000000
       389       130  TIP3  H1           -3.6143132754        4.8058458525        9.7765883328  CLST         130          1.0000000000
       390       130  TIP3  H2           -3.7269675395        3.4899840670       10.6674258596  CLST         130          1.0000000000
       391       131  TIP3  OH2           7.7576299940       -3.7902743796       -9.9462831675  CLST         131          1.0000000000
       392       131  TIP3  H1            7.6883737631       -2.9736183810       -9.3500746491  CLST         131          1.0000000000
       393       131  TIP3  H2            6.7483121379       -3.9095878001       -9.9656995653  CLST         131          1.0000000000
       394       132  TIP3  OH2         -11.5926212456       11.3131324186       12.3330419263  CLST         132          1.0000000000
       395       132  TIP3  H1          -11.2029690536       12.0186283588       11.7591356490  CLST         132          1.0000000000
       396       132  TIP3  H2          -12.0216899255       11.6279394104       13.0029327548  CLST         132          1.0000000000
       397       133  TIP3  OH2          10.3459059875        9.4026723516        8.6942102774  CLST         133          1.0000000000
       398       133  TIP3  H1           10.6370366839        8.8665298076        9.4720597758  CLST         133          1.0000000000
       399       133  TIP3  H2           11.2479465960        9.8741872046        8.6231206857  CLST         133          1.0000000000
       400       134  TIP3  OH2          -7.8124501562        5.8391136436       -5.9883917870  CLST         134          1.0000000000
       401       134  TIP3  H1           -8.3871115191        6.5999765741       -5.8181715988  CLST         134          1.0000000000
       402       134  TIP3  H2           -7.4637641267        5.6632706512       -5.0867172851  CLST         134          1.0000000000
       403       135  TIP3  OH2          10.7918147627      -11.3213608676      -13.2225841196  CLST         135          1.0000000000
       404       135  TIP3  H1           11.0665401551      -10.4963324138      -12.7681053595  CLST         135          1.0000000000
       405       135  TIP3  H2           11.2415168151      -11.3615224588      -13.9921799445  CLST         135          1.0000000000
       406       136  TIP3  OH2          -4.2440479089        1.8136858594       -7.0442380988  CLST         136          1.0000000000
       407       136  TIP3  H1           -4.8662906857        1.0960304896       -7.3899115975  CLST         136          1.0000000000
       408       136  TIP3  H2           -4.8904290714        2.2708289853       -6.4447254487  CLST         136          1.0000000000
       409       137  TIP3  OH2          12.8699840540       10.2754222775        8.9882330054  CLST         137          1.0000000000
       410       137  TIP3  H1           12.9949579747        9.9917364630        9.8800923124  CLST         137          1.0000000000
       411       137  TIP3  H2           13.7449118467        9.7135710537        8.5909575065  CLST         137          1.0000000000
       412       138  TIP3  OH2          -0.8734348605       -9.9292137132        1.6645721756  CLST         138          1.0000000000
       413       138  TIP3  H1           -1.0729406446       -9.3533508919        0.9179393314  CLST         138          1.0000000000
       414       138  TIP3  H2           -0.8900583000       -9.2720498044        2.3991777822  CLST         138          1.0000000000
       415       139  TIP3  OH2          -9.4862251572      -10.7605814471        4.5078134331  CLST         139          1.0000000000
       416       139  TIP3  H1          -10.1541457316      -10.7130785978        3.7705809727  CLST         139          1.0000000000
       417       139  TIP3  H2           -8.8301598784      -11.3257197253        4.0277272281  CLST         139          1.0000000000
       418       140  TIP3  OH2          -7.0839388256        3.3698548317       -0.4312210686  CLST         140          1.0000000000
       419       140  TIP3  H1           -6.3084146563        3.9109353982       -0.2197396745  CLST         140          1.0000000000
       420       140  TIP3  H2           -7.6711576262        4.0864936751       -0.7633665711  CLST         140          1.0000000000
       421       141  TIP3  OH2           2.0997295475       -4.4464618232       -3.6059368694  CLST         141          1.0000000000
       422       141  TIP3  H1            1.7082859912       -3.6176205615       -3.2269403777  CLST         141          1.0000000000
       423       141  TIP3  H2            2.7327447921       -3.8877089621       -4.1351817902  CLST         141          1.0000000000
       424       142  TIP3  OH2         -11.6876155088       -0.0829933935        4.8134231444  CLST         142          1.0000000000
       425       142  TIP3  H1          -11.8126616973        0.5709650223        5.5065303204  CLST         142          1.0000000000
       426       142  TIP3  H2          -11.9603140379        0.4730829529        4.0659104882  CLST         142          1.0000000000
       427       143  TIP3  OH2           9.3474791398       -5.6605898336       -8.1851421651  CLST         143          1.0000000000
       428       143  TIP3  H1            9.3715605431       -4.9442573792       -8.8437998560  CLST         143          1.0000000000
       429       143  TIP3  H2            9.9575894358       -6.3232976805       -8.5575958092  CLST         143          1.0000000000
       430       144  TIP3  OH2           3.3035071857       -2.7895624288        9.1010634548  CLST         144          1.0000000000
       431       144  TIP3  H1            2.4992573862       -2.5790971210        9.6629430102  CLST         144          1.0000000000
       432       144  TIP3  H2            3.1726051217       -2.1010389409        8.4068249315  CLST         144          1.0000000000
       433       145  TIP3  OH2         -10.1732073376       13.3344915599        3.1905612463  CLST         145          1.0000000000
       434       145  TIP3  H1          -10.4846928171       13.2636265882        2.2017147565  CLST         145          1.0000000000
       435       145  TIP3  H2           -9.7420957573       12.4528329682        3.1396223157  CLST         145          1.0000000000
       436       146  TIP3  OH2           9.0842070345        2.6653737975       -4.2161488190  CLST         146          1.0000000000
       437       146  TIP3  H1            8.8456676585        3.6087006239       -4.0836578203  CLST         146          1.0000000000
       438       146  TIP3  H2            8.3452104552        2.6011022947       -4.9063978488  CLST         146          1.0000000000
       439       147  TIP3  OH2         -10.8736455691       -0.3177304198       -4.1445623285  CLST         147          1.0000000000
       440       147  TIP3  H1           -9.9708107017       -0.6931885292       -4.3885185971  CLST         147          1.0000000000
       441       147  TIP3  H2          -11.3254264023       -0.5134708969       -4.9957770584  CLST         147          1.0000000000
       442       148  TIP3  OH2          -7.9791820556        1.3019620735        8.9194693325  CLST         148          1.0000000000
       443       148  TIP3  H1           -7.9499249636        1.0912862828        7.9283944524  CLST         148          1.0000000000
       444       148  TIP3  H2           -6.9868658779        1.2777683926        9.0088492276  CLST         148          1.0000000000
       445       149  TIP3  OH2           8.6174801900       -2.8420520376        0.7309943237  CLST         149          1.0000000000
       446       149  TIP3  H1            9.2497003088       -2.0846841434        0.6997010408  CLST         149          1.0000000000
       447       149  TIP3  H2            8.1445564837       -2.6530714417        1.5498864972  CLST         149          1.0000000000
       448       150  TIP3  OH2          -2.0525910602      -11.6346933677        8.4629880692  CLST         150          1.0000000000
       449       150  TIP3  H1           -2.8971622156      -11.8476675799        8.9971082657  CLST         150          1.0000000000
       450       150  TIP3  H2           -1.4710416373      -11.9384758260        9.2494222394  CLST         150          1.0000000000
       451       151  TIP3  OH2          -8.9454979685       -6.3815787597       -4.8085832912  CLST         151          1.0000000000
       452       151  TIP3  H1           -7.9751365952       -6.4725260856       -4.5167631079  CLST         151          1.0000000000
       453       151  TIP3  H2           -8.8585006377       -7.2969433696       -5.2360853990  CLST         151          1.0000000000
       454       152  TIP3  OH2           3.9606388923       -2.0559046787        5.0475578854  CLST         152          1.0000000000
       455       152  TIP3  H1            4.4418941694       -2.8769790853        5.4191631177  CLST         152          1.0000000000
       456       152  TIP3  H2            3.8974972270       -2.5565169087        4.1572526369  CLST         152          1.0000000000
       457       153  TIP3  OH2          -2.7074880038        4.8993966835      -14.1953688074  CLST         153          1.0000000000
       458       153  TIP3  H1           -1.9791492283        5.5243308668      -14.0929242033  CLST         153          1.0000000000
       459       153  TIP3  H2           -2.5411729315        4.5289899354      -13.2913662968  CLST         153          1.0000000000
       460       154  TIP3  OH2           4.4522764206       -6.9480508136        2.0647940338  CLST         154          1.0000000000
       461       154  TIP3  H1            5.2538177701       -6.4115962006        1.9166011228  CLST         154          1.0000000000
       462       154  TIP3  H2            3.7905492648       -6.4044667939        1.5904010325  CLST         154          1.0000000000
       463       155  TIP3  OH2           9.4326072957       -2.6675069830       10.2569760988  CLST         155          1.0000000000
       464       155  TIP3  H1            8.8108299588       -3.1656637303        9.6112881394  CLST         155          1.0000000000
       465       155  TIP3  H2           10.0842584125       -3.2661913050       10.4840558328  CLST         155          1.0000000000
       466       156  TIP3  OH2          -1.9030303786       11.3624686796       11.6303403886  CLST         156          1.0000000000
       467       156  TIP3  H1           -2.6645245498       11.7822831715       12.0561283234  CLST         156          1.0000000000
       468       156  TIP3  H2           -2.3332121319       10.5092584268       11.5288822119  CLST         156          1.0000000000
       469       157  TIP3  OH2           3.9059711076       -0.7931057754        7.4415216618  CLST         157          1.0000000000
       470       157  TIP3  H1            4.8304224900       -0.9727437074        7.7077849947  CLST         157          1.0000000000
       471       157  TIP3  H2            3.8389104209       -1.1596673811        6.5099707269  CLST         157          1.0000000000
       472       158  TIP3  OH2          10.6011407101        8.9984464029       13.3220783883  CLST         158          1.0000000000
       473       158  TIP3  H1            9.7245206529        8.5450419535       13.1261254317  CLST         158          1.0000000000
       474       158  TIP3  H2           10.2774697515        9.8402600448       12.9850579364  CLST         158          1.0000000000
       475       159  TIP3  OH2           0.4355070640      -12.1816401264        4.3430718949  CLST         159          1.0000000000
       476       159  TIP3  H1           -0.1234723522      -12.5006285336        5.1156970546  CLST         159          1.0000000000
       477       159  TIP3  H2            0.2121449617      -11.2252958508        4.5751509141  CLST         159          1.0000000000
       478       160  TIP3  OH2           7.3514887310       -3.6458606823        8.5999653633  CLST         160          1.0000000000
       479       160  TIP3  H1            6.8210654533       -3.7620837884        7.7665674955  CLST         160          1.0000000000
       480       160  TIP3  H2            6.9730070572       -2.7329769342        8.8171145844  CLST         160          1.0000000000
       481       161  TIP3  OH2          -2.3921555928       -2.2876908913        7.8531415565  CLST         161          1.0000000000
       482       161  TIP3  H1           -1.9636104225       -1.7518890141        8.6268350051  CLST         161          1.0000000000
       483       161  TIP3  H2           -3.3050835912       -2.0817289223        8.1637803413  CLST         161          1.0000000000
       484       162  TIP3  OH2          -0.7023257196        3.7078664035      -10.7301667182  CLST         162          1.0000000000
       485       162  TIP3  H1           -0.3785200370        4.4159564828      -11.3099339380  CLST         162          1.0000000000
       486       162  TIP3  H2           -0.6805398075        3.9634040164       -9.8069460282  CLST         162          1.0000000000
       487       163  TIP3  OH2          -9.9935516861        9.0183032345       11.3458995726  CLST         163          1.0000000000
       488       163  TIP3  H1          -10.7302352138        8.3195310043       11.4139792421  CLST         163          1.0000000000
       489       163  TIP3  H2          -10.3142414447        9.6728244494       11.9674456294  CLST         163          1.0000000000
       490       164  TIP3  OH2           4.0537139270      -10.4405625125       12.9639620184  CLST         164          1.0000000000
       491       164  TIP3  H1            4.5537974537       -9.5879951118       12.7468916779  CLST         164          1.0000000000
       492       164  TIP3  H2            4.8367988213      -11.0469164042       12.7992550251  CLST         164          1.0000000000
       493       165  TIP3  OH2         -12.1934312746       -5.4528543855        3.6433914301  CLST         165          1.0000000000
       494       165  TIP3  H1          -11.9460239961       -5.6159281709        4.6012713802  CLST         165          1.0000000000
       495       165  TIP3  H2          -13.0863597095       -5.2610210218        3.8054592716  CLST         165          1.0000000000
       496       166  TIP3  OH2          -1.5155942944       -6.3608032343      -10.2624912447  CLST         166          1.0000000000
       497       166  TIP3  H1           -0.5993127469       -6.6656166729      -10.3475521113  CLST         166          1.0000000000
       498       166  TIP3  H2           -1.9937752235       -7.1545843502      -10.3511440822  CLST         166          1.0000000000
       499       167  TIP3  OH2           8.1247365144       10.8053976470       -0.8162595964  CLST         167          1.0000000000
       500       167  TIP3  H1            8.6922693126       10.2455137685       -0.1648234898  CLST         167          1.0000000000
       501       167  TIP3  H2            8.5512788557       10.4943219292       -1.6422177739  CLST         167          1.0000000000
       502       168  TIP3  OH2          -0.7569944535      -13.3267748619        2.0593866455  CLST         168          1.0000000000
       503       168  TIP3  H1           -0.3456581608      -12.9744341305        2.9019507086  CLST         168          1.0000000000
       504       168  TIP3  H2           -0.0461392677      -13.8362172737        1.6888033262  CLST         168          1.0000000000
       505       169  TIP3  OH2           5.1026262275        4.0625672666        3.3122482310  CLST         169          1.0000000000
       506       169  TIP3  H1            4.1636342838        3.8129730245        3.2439833743  CLST         169          1.0000000000
       507       169  TIP3  H2            5.1540503717        4.6697652887        2.5121424681  CLST         169          1.0000000000
       508       170  TIP3  OH2          -1.1832602834        4.2822981568        1.4389117234  CLST         170          1.0000000000
       509       170  TIP3  H1           -1.8701413967        4.9875153039        1.3780830037  CLST         170          1.0000000000
       510       170  TIP3  H2           -1.6412216067        3.4276145128        1.3228369833  CLST         170          1.0000000000
       511       171  TIP3  OH2          -2.9614339512        1.3735366249        7.5088495576  CLST         171          1.0000000000
       512       171  TIP3  H1           -2.9153484472        1.2187091060        6.5567180047  CLST         171          1.0000000000
       513       171  TIP3  H2           -2.0012197359        1.6605136226        7.5873988807  CLST         171          1.0000000000
       514       172  TIP3  OH2          -6.4854485297      -13.1802227789        7.9354832208  CLST         172          1.0000000000
       515       172  TIP3  H1           -6.6315405680      -14.0296507225        7.8008932107  CLST         172          1.0000000000
       516       172  TIP3  H2           -5.6823481710      -12.8964751185        7.3659302600  CLST         172          1.0000000000
       517       173  TIP3  OH2          10.1763962312      -12.4763877485        1.8928541999  CLST         173          1.0000000000
       518       173  TIP3  H1           10.4529003143      -12.4947517544        0.9088557456  CLST         173          1.0000000000
       519       173  TIP3  H2            9.2777181861      -12.1787790758        1.8464617538  CLST         173          1.0000000000
       520       174  TIP3  OH2           0.1044645651        5.4919457933        9.7577710737  CLST         174          1.0000000000
       521       174  TIP3  H1            0.1295561021        4.6449203021       10.2696292060  CLST         174          1.0000000000
       522       174  TIP3  H2           -0.8191628263        5.7015817343        9.9534420912  CLST         174          1.0000000000
       523       175  TIP3  OH2          -5.6703529277       10.3327660306       -3.5773828483  CLST         175          1.0000000000
       524       175  TIP3  H1           -5.3076185457       10.0505291624       -4.4867786338  CLST         175          1.0000000000
       525       175  TIP3  H2           -6.6014113839       10.0935274349       -3.9466139685  CLST         175          1.0000000000
       526       176  TIP3  OH2           6.6871005417        9.2140972510       -7.6784414069  CLST         176          1.0000000000
       527       176  TIP3  H1            7.1056340399       10.0516548527       -8.0006006019  CLST         176          1.0000000000
       528       176  TIP3  H2            6.2001804352        9.5772204041       -6.8924746922  CLST         176          1.0000000000
       529       177  TIP3  OH2          -3.7227681399      -11.4078096744       -1.5520007806  CLST         177          1.0000000000
       530       177  TIP3  H1           -3.2060431975      -11.9581691736       -0.9271562978  CLST         177          1.0000000000
       531       177  TIP3  H2           -4.4834655625      -11.2098330374       -0.9474454274  CLST         177          1.0000000000
       532       178  TIP3  OH2          10.8246170001       -9.0288081927      -11.4611571714  CLST         178          1.0000000000
       533       178  TIP3  H1           11.2776661559       -8.8938095882      -10.5944040483  CLST         178          1.0000000000
       534       178  TIP3  H2           10.6577202398       -8.0805651896      -11.6126571658  CLST         178          1.0000000000
       535       179  TIP3  OH2           6.4727975544       -0.8886736313        8.4753358265  CLST         179          1.0000000000
       536       179  TIP3  H1            6.1067819166       -0.3922555878        9.2496152494  CLST         179          1.0000000000
       537       179  TIP3  H2            7.0493219544       -0.2302557317        8.0392248889  CLST         179          1.0000000000
       538       180  TIP3  OH2          -7.5366599389        8.2457192462        5.8814763601  CLST         180          1.0000000000
       539       180  TIP3  H1           -7.1349538061        7.9619940445        6.7398606054  CLST         180          1.0000000000
       540       180  TIP3  H2           -8.4644977149        8.1381583308        6.1663082510  CLST         180          1.0000000000
       541       181  TIP3  OH2           6.0279442122      -12.9642903356       -0.3891094592  CLST         181          1.0000000000
       542       181  TIP3  H1            6.6571689781      -13.2716980708       -1.0267811134  CLST         181          1.0000000000
       543       181  TIP3  H2            6.3680118731      -12.9780083805        0.5177401224  CLST         181          1.0000000000
       544       182  TIP3  OH2          -1.6135713047       10.3838940820      -10.3808224635  CLST         182          1.0000000000
       545       182  TIP3  H1           -0.8182016911       10.7546947161       -9.9497904391  CLST         182          1.0000000000
       546       182  TIP3  H2           -2.1831922708       10.2775586676       -9.5914752538  CLST         182          1.0000000000
       547       183  TIP3  OH2          -5.4157477757        3.8210141419      -12.2491372743  CLST         183          1.0000000000
       548       183  TIP3  H1           -5.3697642749        3.5677072608      -11.2481517273  CLST         183          1.0000000000
       549       183  TIP3  H2           -6.3519297776        3.4488112191      -12.3148148094  CLST         183          1.0000000000
       550       184  TIP3  OH2           2.9571478031        8.3879094225       -2.3778147065  CLST         184          1.0000000000
       551       184  TIP3  H1            2.9073800627        7.6573299464       -1.6824334487  CLST         184          1.0000000000
       552       184  TIP3  H2            2.0551746651        8.0390472116       -2.7475416915  CLST         184          1.0000000000
       553       185  TIP3  OH2           7.3581187830        4.7356975361       12.1427959676  CLST         185          1.0000000000
       554       185  TIP3  H1            7.5647163028        3.8105033991       12.3375047853  CLST         185          1.0000000000
       555       185  TIP3  H2            6.8629993474        5.0646017829       12.9837624925  CLST         185          1.0000000000
       556       186  TIP3  OH2           3.8609429971        6.0175152746       -5.3016199555  CLST         186          1.0000000000
       557       186  TIP3  H1            4.0597993372        6.9795646097       -5.3767502108  CLST         186          1.0000000000
       558       186  TIP3  H2            3.8184038647        5.7376587349       -6.2253383303  CLST         186          1.0000000000
       559       187  TIP3  OH2           4.1968942376        1.7284848156       -5.5430766070  CLST         187          1.0000000000
       560       187  TIP3  H1            4.2796055598        1.7091174240       -4.5550796069  CLST         187          1.0000000000
       561       187  TIP3  H2            3.7385366283        0.8243630537       -5.5711507080  CLST         187          1.0000000000
       562       188  TIP3  OH2          -4.6275770736       -1.4062390229        4.9177306842  CLST         188          1.0000000000
       563       188  TIP3  H1           -4.6401179249       -0.5336965196        4.4844511257  CLST         188          1.0000000000
       564       188  TIP3  H2           -4.7705706968       -1.1697375207        5.8856824216  CLST         188          1.0000000000
       565       189  TIP3  OH2          -5.0897002167        3.4678785264      -15.1166144711  CLST         189          1.0000000000
       566       189  TIP3  H1           -5.0513617151        3.3562135918      -14.1448095287  CLST         189          1.0000000000
       567       189  TIP3  H2           -4.2069325812        3.8720566520      -15.2120821496  CLST         189          1.0000000000
       568       190  TIP3  OH2           7.2124430932       -5.7321964405        5.3162488458  CLST         190          1.0000000000
       569       190  TIP3  H1            7.2110342909       -5.9879291201        4.3781339966  CLST         190          1.0000000000
       570       190  TIP3  H2            8.1796476303       -5.6787947393        5.4026155103  CLST         190          1.0000000000
       571       191  TIP3  OH2         -10.9653406219       -4.9778027893       -6.6583470691  CLST         191          1.0000000000
       572       191  TIP3  H1          -10.1858823420       -4.6477898449       -7.1174208540  CLST         191          1.0000000000
       573       191  TIP3  H2          -10.5186337877       -5.7134473484       -6.1942339098  CLST         191          1.0000000000
       574       192  TIP3  OH2           8.7328459975       14.3377132303        1.9035790134  CLST         192          1.0000000000
       575       192  TIP3  H1            8.5253286258       14.1388366401        2.8153380167  CLST         192          1.0000000000
       576       192  TIP3  H2            8.5917362465       15.2737550877        1.9541381368  CLST         192          1.0000000000
       577       193  TIP3  OH2           6.1327060826      -12.2722734379       11.7512222864  CLST         193          1.0000000000
       578       193  TIP3  H1            6.6825299919      -13.0315798529       11.6126861038  CLST         193          1.0000000000
       579       193  TIP3  H2            6.2863017632      -11.6797227195       10.9999302298  CLST         193          1.0000000000
       580       194  TIP3  OH2          -6.2200117663       -4.5160140309       11.1788576503  CLST         194          1.0000000000
       581       194  TIP3  H1           -6.5848390331       -4.4265540495       12.0619980546  CLST         194          1.0000000000
       582       194  TIP3  H2           -6.9160450366       -4.0905933627       10.6507321936  CLST         194          1.0000000000
       583       195  TIP3  OH2          -7.5357897306        9.1533121105       10.2654857153  CLST         195          1.0000000000
       584       195  TIP3  H1           -8.4327165615        8.9253369168       10.7143010853  CLST         195          1.0000000000
       585       195  TIP3  H2           -7.8170797896        8.6744373497        9.4294921984  CLST         195          1.0000000000
       586       196  TIP3  OH2           6.0042449190      -12.3745387052       -5.8920004992  CLST         196          1.0000000000
       587       196  TIP3  H1            6.3156921402      -11.6362165398       -6.4688162575  CLST         196          1.0000000000
       588       196  TIP3  H2            5.2087766879      -11.8798763909       -5.5699913560  CLST         196          1.0000000000
       589       197  TIP3  OH2           2.0082418187       -9.2170844877       -2.9258725270  CLST         197          1.0000000000
       590       197  TIP3  H1            1.6642262140       -8.3162186408       -2.6667632094  CLST         197          1.0000000000
       591       197  TIP3  H2            2.9191189540       -8.9818869837       -2.7363043281  CLST         197          1.0000000000
       592       198  TIP3  OH2          10.8258111812        1.9348527432        4.7669400203  CLST         198          1.0000000000
       593       198  TIP3  H1            9.8830428902        1.7329468706        4.5401012725  CLST         198          1.0000000000
       594       198  TIP3  H2           10.8160056975        2.8005635309        4.3257368194  CLST         198          1.0000000000
       595       199  TIP3  OH2           0.0211100838        8.2716251914       -5.8230567273  CLST         199          1.0000000000
       596       199  TIP3  H1           -0.5740624830        8.6847348822       -5.1894435266  CLST         199          1.0000000000
       597       199  TIP3  H2           -0.2810427845        7.3274803226       -5.7131933019  CLST         199          1.0000000000
       598       200  TIP3  OH2          -7.6206369346       11.8633534834       10.7787407129  CLST         200          1.0000000000
       599       200  TIP3  H1           -7.5574773632       10.8841515944       10.6924997727  CLST         200          1.0000000000
       600       200  TIP3  H2           -7.5228456147       12.1541142410        9.8255560964  CLST         200          1.0000000000
       601       201  TIP3  OH2           4.4387992888        0.9815132678       -0.0249312063  CLST         201          1.0000000000
       602       201  TIP3  H1            4.3559929659        1.6844942882        0.6344886918  CLST         201          1.0000000000
       603       201  TIP3  H2            5.2502049177        0.5686770736        0.3422800933  CLST         201          1.0000000000
       604       202  TIP3  OH2          -2.0008221392       -4.1352862073      -12.4124665173  CLST         202          1.0000000000
       605       202  TIP3  H1           -1.6735423360       -4.6181198588      -11.6487758046  CLST         202          1.0000000000
       606       202  TIP3  H2           -2.6025221044       -3.5040716925      -11.9500485142  CLST         202          1.0000000000
       607       203  TIP3  OH2          -0.7111339763       11.4041466719        7.5305574113  CLST         203          1.0000000000
       608       203  TIP3  H1            0.1071023730       11.0386645288        7.9166061911  CLST         203          1.0000000000
       609       203  TIP3  H2           -1.3504875043       10.8892001997        8.0947579044  CLST         203          1.0000000000
       610       204  TIP3  OH2          -5.4493973468        6.3082039535      -13.2588964383  CLST         204          1.0000000000
       611       204  TIP3  H1           -4.8915627153        6.1898800981      -14.0292113036  CLST         204          1.0000000000
       612       204  TIP3  H2           -5.6399737879        5.3498774141      -13.0760445697  CLST         204          1.0000000000
       613       205  TIP3  OH2          -2.2717360808        7.0889258365       -2.6246345527  CLST         205          1.0000000000
       614       205  TIP3  H1           -2.2478264240        7.6537123266       -3.4704421616  CLST         205          1.0000000000
       615       205  TIP3  H2           -1.2356627445        7.1154435859       -2.5785476163  CLST         205          1.0000000000
       616       206  TIP3  OH2           4.9216263118      -11.1366092903       -9.7821556631  CLST         206          1.0000000000
       617       206  TIP3  H1            5.0641695717      -11.9947911518       -9.3329811902  CLST         206          1.0000000000
       618       206  TIP3  H2            5.4833509822      -10.5927818412       -9.1279540569  CLST         206          1.0000000000
       619       207  TIP3  OH2          12.9128135227       10.1373367005       12.1381582775  CLST         207          1.0000000000
       620       207  TIP3  H1           12.1356935082        9.8526679060       12.6655978168  CLST         207          1.0000000000
       621       207  TIP3  H2           13.5305179005        9.9080035911       12.8154594243  CLST         207          1.0000000000
       622       208  TIP3  OH2         -11.5213923989        2.3566612167        6.8889187766  CLST         208          1.0000000000
       623       208  TIP3  H1          -11.1241501418        2.2723963011        7.8217983975  CLST         208          1.0000000000
       624       208  TIP3  H2          -11.2345771642        3.2713931317        6.5988972741  CLST         208          1.0000000000
       625       209  TIP3  OH2           4.5291578258       -9.2861936830        7.3315288212  CLST         209          1.0000000000
       626       209  TIP3  H1            3.9491567190       -9.7636754634        6.6454637083  CLST         209          1.0000000000
       627       209  TIP3  H2            3.7754007707       -8.6303719292        7.4328710057  CLST         209          1.0000000000
       628       210  TIP3  OH2          12.1533025188      -11.1648502342        5.3077915515  CLST         210          1.0000000000
       629       210  TIP3  H1           12.4852111632      -11.0705804837        4.3919640301  CLST         210          1.0000000000
       630       210  TIP3  H2           12.3515620531      -10.3297948273        5.7443691425  CLST         210          1.0000000000
       631       211  TIP3  OH2          -0.3893637251       -9.2098235915       12.1892718410  CLST         211          1.0000000000
       632       211  TIP3  H1            0.1437362017       -9.7665474833       12.8412021832  CLST         211          1.0000000000
       633       211  TIP3  H2           -1.0761587699       -9.9737232814       11.9864820058  CLST         211          1.0000000000
       634       212  TIP3  OH2         -12.3082098019        3.4432405101       -2.4760646896  CLST         212          1.0000000000
       635       212  TIP3  H1          -11.8331595049        4.1598037881       -2.9411270961  CLST         212          1.0000000000
       636       212  TIP3  H2          -11.8754331615        2.6091684620       -2.6024760953  CLST         212          1.0000000000
       637       213  TIP3  OH2          -9.4304383958      -11.4763860503      -11.6841874234  CLST         213          1.0000000000
       638       213  TIP3  H1           -9.7720344431      -11.4853355201      -12.4921339190  CLST         213          1.0000000000
       639       213  TIP3  H2           -8.4386590970      -11.2008798747      -11.8851659429  CLST         213          1.0000000000
       640       214  TIP3  OH2          -6.5590585694        2.2613565890       -5.5252428638  CLST         214          1.0000000000
       641       214  TIP3  H1           -6.3869356556        1.3615465200       -5.1035610846  CLST         214          1.0000000000
       642       214  TIP3  H2           -7.0181987390        2.6587285301       -4.7683330196  CLST         214          1.0000000000
       643       215  TIP3  OH2         -11.9438208886      -12.9766065053        5.6566347254  CLST         215          1.0000000000
       644       215  TIP3  H1          -11.1346671165      -12.4610182785        5.3437998993  CLST         215          1.0000000000
       645       215  TIP3  H2          -12.0699380159      -13.2617104003        4.7198557948  CLST         215          1.0000000000
       646       216  TIP3  OH2         -11.8461350120       -2.2820285344        8.0502812046  CLST         216          1.0000000000
       647       216  TIP3  H1          -10.8613005192       -2.1002739350        7.9762599910  CLST         216          1.0000000000
       648       216  TIP3  H2          -11.7674677660       -3.1845430292        8.4985910347  CLST         216          1.0000000000
       649       217  TIP3  OH2           7.5450497629       -0.2364617387       -1.4738384779  CLST         217          1.0000000000
       650       217  TIP3  H1            8.2194246088       -0.9488051157       -1.6901353376  CLST         217          1.0000000000
       651       217  TIP3  H2            6.9721762905       -0.7989604307       -0.9049569472  CLST         217          1.0000000000
       652       218  TIP3  OH2          -8.3309219114       -4.0258260732        9.2447134199  CLST         218          1.0000000000
       653       218  TIP3  H1           -8.5531506796       -3.1011698297        8.9377457174  CLST         218          1.0000000000
       654       218  TIP3  H2           -7.7422451144       -4.2995874792        8.5500239747  CLST         218          1.0000000000
       655       219  TIP3  OH2         -12.5122331069       -4.4507345709       -2.6832710762  CLST         219          1.0000000000
       656       219  TIP3  H1          -12.6707095020       -3.5263612804       -2.3609851091  CLST         219          1.0000000000
       657       219  TIP3  H2          -12.9032209077       -4.3411905477       -3.5934792093  CLST         219          1.0000000000
       658       220  TIP3  OH2           6.3088550589        6.7803183487        7.8097817812  CLST         220          1.0000000000
       659       220  TIP3  H1            5.8460858273        6.4291925487        7.0051358882  CLST         220          1.0000000000
       660       220  TIP3  H2            5.4907576315        6.6536670464        8.3414151009  CLST         220          1.0000000000
       661       221  TIP3  OH2         -10.3932401775       -7.1505758284       10.3111404942  CLST         221          1.0000000000
       662       221  TIP3  H1           -9.4686977712       -7.4010507731       10.2968094451  CLST         221          1.0000000000
       663       221  TIP3  H2          -10.7260008736       -8.0022350955        9.9068539526  CLST         221          1.0000000000
       664       222  TIP3  OH2          -6.8917288150       -0.8450466247      -13.7266899610  CLST         222          1.0000000000
       665       222  TIP3  H1           -6.3366497677       -1.6763832580      -13.5886872112  CLST         222          1.0000000000
       666       222  TIP3  H2           -7.7099542678       -1.1317158589      -13.2620998277  CLST         222          1.0000000000
       667       223  TIP3  OH2           2.7726186450      -10.8127073568      -11.6461420289  CLST         223          1.0000000000
       668       223  TIP3  H1            2.2126296683      -11.6361966898      -11.4132831308  CLST         223          1.0000000000
       669       223  TIP3  H2            3.6152615980      -11.0061276413      -11.1507968431  CLST         223          1.0000000000
       670       224  TIP3  OH2           7.5302999881        4.8266349427        0.6794699585  CLST         224          1.0000000000
       671       224  TIP3  H1            8.4487294349        5.1138270768        0.8541939205  CLST         224          1.0000000000
       672       224  TIP3  H2            7.5783386863        4.5133733151       -0.2454010066  CLST         224          1.0000000000
       673       225  TIP3  OH2          -0.2603829674        4.6394017666       -1.2167984676  CLST         225          1.0000000000
       674       225  TIP3  H1           -0.8955200881        4.5747545994       -0.4674595824  CLST         225          1.0000000000
       675       225  TIP3  H2           -0.1193172234        3.6462275822       -1.3015745970  CLST         225          1.0000000000
       676       226  TIP3  OH2          -5.7465590731       -4.3186207715        7.5642121582  CLST         226          1.0000000000
       677       226  TIP3  H1           -5.6515165099       -5.3196841573        7.6961866680  CLST         226          1.0000000000
       678       226  TIP3  H2           -5.9135768062       -4.2675161027        6.6123212893  CLST         226          1.0000000000
       679       227  TIP3  OH2          11.6576166863       -4.0797390820       -9.8988830858  CLST         227          1.0000000000
       680       227  TIP3  H1           12.0490040917       -3.7374368263       -9.0347316437  CLST         227          1.0000000000
       681       227  TIP3  H2           11.4141067100       -3.2072119266      -10.2338528812  CLST         227          1.0000000000
       682       228  TIP3  OH2           3.4252825340       12.4486819052        3.2842877635  CLST         228          1.0000000000
       683       228  TIP3  H1            2.6758097397       11.9318715832        3.8408186610  CLST         228          1.0000000000
       684       228  TIP3  H2            2.7700251177       12.5741722022        2.5758968045  CLST         228          1.0000000000
       685       229  TIP3  OH2         -11.4626313244      -13.0179335460        2.8535918422  CLST         229          1.0000000000
       686       229  TIP3  H1          -11.6273609870      -13.7961604449        2.4138542250  CLST         229          1.0000000000
       687       229  TIP3  H2          -10.9653081287      -12.3534277391        2.2881227716  CLST         229          1.0000000000
       688       230  TIP3  OH2          12.4881968213        6.2803657473       -3.4978392624  CLST         230          1.0000000000
       689       230  TIP3  H1           13.4288981558        6.0485124591       -3.7041587361  CLST         230          1.0000000000
       690       230  TIP3  H2           12.2232405848        5.3102227415       -3.6971515264  CLST         230          1.0000000000
       691       231  TIP3  OH2           7.0398090962        3.3559329540        4.9210102430  CLST         231          1.0000000000
       692       231  TIP3  H1            7.2144354331        4.3112782521        4.9972240605  CLST         231          1.0000000000
       693       231  TIP3  H2            6.1561544111        3.4254282991        4.4730175986  CLST         231          1.0000000000
       694       232  TIP3  OH2         -10.2653803279        8.9823516833        7.4565049920  CLST         232          1.0000000000
       695       232  TIP3  H1          -10.8597815004        9.4020535713        8.1795725665  CLST         232          1.0000000000
       696       232  TIP3  H2          -10.3553571540        8.0475854936        7.8010368842  CLST         232          1.0000000000
       697       233  TIP3  OH2           3.6465330219       -5.1984218316        8.0605965272  CLST         233          1.0000000000
       698       233  TIP3  H1            4.3132714587       -5.6042403265        8.6666190402  CLST         233          1.0000000000
       699       233  TIP3  H2            3.4630498778       -4.3196262950        8.5112971913  CLST         233          1.0000000000
       700       234  TIP3  OH2          -3.6535806840        8.5158238565       -0.5696253471  CLST         234          1.0000000000
       701       234  TIP3  H1           -3.2834144706        7.9388849519       -1.3101470412  CLST         234          1.0000000000
       702       234  TIP3  H2           -3.5938019122        9.3426615279       -1.0297638486  CLST         234          1.0000000000
       703       235  TIP3  OH2          -1.9043566142       -4.1197426848       -9.0726864816  CLST         235          1.0000000000
       704       235  TIP3  H1           -1.8111125322       -5.0832347817       -9.3887309590  CLST         235          1.0000000000
       705       235  TIP3  H2           -0.9745103277       -3.7818123197       -9.2306377531  CLST         235          1.0000000000
       706       236  TIP3  OH2          -0.2260908897      -13.4693716449       -3.0752018836  CLST         236          1.0000000000
       707       236  TIP3  H1            0.4163686712      -12.7366838291       -2.9184932443  CLST         236          1.0000000000
       708       236  TIP3  H2           -0.8071514975      -13.2245277743       -2.3213308074  CLST         236          1.0000000000
       709       237  TIP3  OH2          -3.7282274473       -5.1739986816       10.9177990723  CLST         237          1.0000000000
       710       237  TIP3  H1           -4.7167160336       -5.1207108855       10.8413142475  CLST         237          1.0000000000
       711       237  TIP3  H2           -3.4884201759       -5.9242983185       10.3753132120  CLST         237          1.0000000000
       712       238  TIP3  OH2           0.5123539287        4.6965685221        7.2336114296  CLST         238          1.0000000000
       713       238  TIP3  H1           -0.1300437547        5.2669492428        6.7123902322  CLST         238          1.0000000000
       714       238  TIP3  H2            0.3541300833        5.0555049732        8.1462216455  CLST         238          1.0000000000
       715       239  TIP3  OH2         -14.0676198492        5.9452977575        3.3771991249  CLST         239          1.0000000000
       716       239  TIP3  H1          -14.0201280300        6.1875761792        2.4383249101  CLST         239          1.0000000000
       717       239  TIP3  H2          -13.4108260125        5.2111042361        3.3456906299  CLST         239          1.0000000000
       718       240  TIP3  OH2         -14.1300323013        9.0561737213       -0.2072259036  CLST         240          1.0000000000
       719       240  TIP3  H1          -14.8687987867        8.7985992750        0.2306543330  CLST         240          1.0000000000
       720       240  TIP3  H2          -14.0272064870        7.0840735122        0.3479432551  CLST         240          1.0000000000
       721       241  TIP3  OH2          -7.7369672808       -7.7702562883       -8.6578950925  CLST         241          1.0000000000
       722       241  TIP3  H1           -7.9513781978       -8.0930995652       -7.7562930848  CLST         241          1.0000000000
       723       241  TIP3  H2           -7.3674541755       -6.8794483236       -8.3680136057  CLST         241          1.0000000000
       724       242  TIP3  OH2           6.0309327931       -5.7802577536        9.6531816229  CLST         242          1.0000000000
       725       242  TIP3  H1            6.5858614020       -4.9950396420        9.3478786896  CLST         242          1.0000000000
       726       242  TIP3  H2            6.6842335131       -6.4543737669        9.3321149477  CLST         242          1.0000000000
       727       243  TIP3  OH2          -6.6307620169       -7.2272083554       -4.3125071905  CLST         243          1.0000000000
       728       243  TIP3  H1           -6.2503761791       -8.0962739853       -4.5567301021  CLST         243          1.0000000000
       729       243  TIP3  H2           -6.7102837243       -7.5330690836       -3.3787784904  CLST         243          1.0000000000
       730       244  TIP3  OH2           4.7838188343        5.7900298802        5.5007145987  CLST         244          1.0000000000
       731       244  TIP3  H1            5.2626863562        5.3465873619        4.7514255321  CLST         244          1.0000000000
       732       244  TIP3  H2            4.0588016451        5.0965367890        5.5928202144  CLST         244          1.0000000000
       733       245  TIP3  OH2          -6.9319453149        3.5982548882       -7.7904859284  CLST         245          1.0000000000
       734       245  TIP3  H1           -7.0087758185        3.0750169626       -6.9776657519  CLST         245          1.0000000000
       735       245  TIP3  H2           -7.4455886072        4.3783236453       -7.5131664123  CLST         245          1.0000000000
       736       246  TIP3  OH2           2.1719694916       -6.4875098304       -1.8767652807  CLST         246          1.0000000000
       737       246  TIP3  H1            2.1568841629       -5.7319471144       -2.6284401098  CLST         246          1.0000000000
       738       246  TIP3  H2            3.0930925970       -6.6980032817       -1.8293676203  CLST         246          1.0000000000
       739       247  TIP3  OH2           5.9741243596        8.0715336081        0.6873402804  CLST         247          1.0000000000
       740       247  TIP3  H1            6.2840617700        7.7787401420       -0.1834811652  CLST         247          1.0000000000
       741       247  TIP3  H2            5.8281431048        9.0290019324        0.5466043879  CLST         247          1.0000000000
       742       248  TIP3  OH2          -2.4911041373        8.3388873286      -11.9620411480  CLST         248          1.0000000000
       743       248  TIP3  H1           -2.8102742708        8.8452123049      -12.7062236547  CLST         248          1.0000000000
       744       248  TIP3  H2           -2.1735460992        9.0809517401      -11.4093106428  CLST         248          1.0000000000
       745       249  TIP3  OH2           8.9596489093        4.7947892839       -7.8730736542  CLST         249          1.0000000000
       746       249  TIP3  H1            8.6843697395        5.5924779783       -7.4073445642  CLST         249          1.0000000000
       747       249  TIP3  H2            8.7861434477        4.0009687846       -7.3537966979  CLST         249          1.0000000000
       748       250  TIP3  OH2          -7.4997309286        9.6985751561       -5.3452146357  CLST         250          1.0000000000
       749       250  TIP3  H1           -7.9361438826        8.9735128456       -5.7990289634  CLST         250          1.0000000000
       750       250  TIP3  H2           -7.7280246523       10.4861470360       -5.8560001615  CLST         250          1.0000000000
       751       251  TIP3  OH2          -3.5409290623       12.4148066046        3.1087799694  CLST         251          1.0000000000
       752       251  TIP3  H1           -3.3699246889       13.1734991597        2.7176387848  CLST         251          1.0000000000
       753       251  TIP3  H2           -2.9269838034       12.2188158546        3.8280942224  CLST         251          1.0000000000
       754       252  TIP3  OH2           5.7962747933        5.3745317013       14.4397860928  CLST         252          1.0000000000
       755       252  TIP3  H1            5.5553029977        6.3004616063       14.5390339719  CLST         252          1.0000000000
       756       252  TIP3  H2            5.8230487126        4.9922286023       15.2730700667  CLST         252          1.0000000000
       757       253  TIP3  OH2           6.0543100653       13.9143484872        3.2866841093  CLST         253          1.0000000000
       758       253  TIP3  H1            5.0940769969       13.7441038201        3.4870368229  CLST         253          1.0000000000
       759       253  TIP3  H2            6.0093635107       13.9414350770        2.3382519540  CLST         253          1.0000000000
       760       254  TIP3  OH2          -4.1614525794        8.0488822919        3.0100396540  CLST         254          1.0000000000
       761       254  TIP3  H1           -4.5437684123        8.9343074956        2.8425674065  CLST         254          1.0000000000
       762       254  TIP3  H2           -5.0171142165        7.5803140602        3.0736585200  CLST         254          1.0000000000
       763       255  TIP3  OH2          -6.9904888596       10.4941886789        4.2259546813  CLST         255          1.0000000000
       764       255  TIP3  H1           -7.8760556888       10.8959577207        4.3499830497  CLST         255          1.0000000000
       765       255  TIP3  H2           -7.0885693027        9.6952335879        4.8063653802  CLST         255          1.0000000000
       766       256  TIP3  OH2          11.4602495575        3.7462168026       -1.3551405133  CLST         256          1.0000000000
       767       256  TIP3  H1           11.7415964211        2.9835213720       -1.8826896809  CLST         256          1.0000000000
       768       256  TIP3  H2           11.4308203239        3.3545178810       -0.4485393477  CLST         256          1.0000000000
       769       257  TIP3  OH2          -8.5343116821       -1.2077128500       -4.8844934916  CLST         257          1.0000000000
       770       257  TIP3  H1           -7.7051290082       -0.9284633904       -4.4394331540  CLST         257          1.0000000000
       771       257  TIP3  H2           -8.3451969523       -1.0067851709       -5.8167769284  CLST         257          1.0000000000
       772       258  TIP3  OH2          -5.3505413376       10.1468606042        7.8464553280  CLST         258          1.0000000000
       773       258  TIP3  H1           -5.3071159023       10.8329733398        7.1186071049  CLST         258          1.0000000000
       774       258  TIP3  H2           -5.9564501281       10.6434624934        8.4204924509  CLST         258          1.0000000000
       775       259  TIP3  OH2          10.2198530005        6.3047039699        0.9963490258  CLST         259          1.0000000000
       776       259  TIP3  H1           11.0540346184        6.8421395481        1.0954738757  CLST         259          1.0000000000
       777       259  TIP3  H2           10.1468227238        5.9885021673        1.9112666055  CLST         259          1.0000000000
       778       260  TIP3  OH2          -4.9313491838        7.6353608749        8.8094275585  CLST         260          1.0000000000
       779       260  TIP3  H1           -5.2614319625        8.4277742849        8.2955049327  CLST         260          1.0000000000
       780       260  TIP3  H2           -5.8173346519        7.3001170995        9.0966438423  CLST         260          1.0000000000
       781       261  TIP3  OH2           0.5557704763       -4.9421805485       12.3439234806  CLST         261          1.0000000000
       782       261  TIP3  H1            0.0399625229       -5.8148791916       12.2965197338  CLST         261          1.0000000000
       783       261  TIP3  H2            1.2680182676       -5.1906795710       12.9361775699  CLST         261          1.0000000000
       784       262  TIP3  OH2         -11.0621295333        4.8328763012        5.8874401621  CLST         262          1.0000000000
       785       262  TIP3  H1          -10.2725747103        4.6819268163        5.3025626535  CLST         262          1.0000000000
       786       262  TIP3  H2          -11.8606984500        5.1337606394        5.3995780942  CLST         262          1.0000000000
       787       263  TIP3  OH2           1.7234835418        0.8819659680        6.6754859063  CLST         263          1.0000000000
       788       263  TIP3  H1            2.1810420036        1.6121260178        6.1610013916  CLST         263          1.0000000000
       789       263  TIP3  H2            2.4850500763        0.4225751490        7.1230600937  CLST         263          1.0000000000
       790       264  TIP3  OH2           5.2030612041       -4.2793638329       -9.6319933900  CLST         264          1.0000000000
       791       264  TIP3  H1            4.9039597094       -5.2242943726       -9.7289236593  CLST         264          1.0000000000
       792       264  TIP3  H2            4.4476125635       -3.8910718684      -10.2188747583  CLST         264          1.0000000000
       793       265  TIP3  OH2           7.6152352791        4.9448625791      -10.1340213947  CLST         265          1.0000000000
       794       265  TIP3  H1            7.9123269458        5.7233189536      -10.6021555788  CLST         265          1.0000000000
       795       265  TIP3  H2            8.3195380687        5.0252344911       -9.2889948617  CLST         265          1.0000000000
       796       266  TIP3  OH2          -7.9160333304       -8.7583731768        0.1140906412  CLST         266          1.0000000000
       797       266  TIP3  H1           -7.8333299161       -9.0283293945        1.0613202143  CLST         266          1.0000000000
       798       266  TIP3  H2           -8.2852889972       -7.8718463387        0.1324592411  CLST         266          1.0000000000
       799       267  TIP3  OH2           1.1909421372        2.5841918638       -5.0859808229  CLST         267          1.0000000000
       800       267  TIP3  H1            1.6128852923        3.3080632083       -4.5555387106  CLST         267          1.0000000000
       801       267  TIP3  H2            1.7247937830        1.8300225473       -4.7748124628  CLST         267          1.0000000000
       802       268  TIP3  OH2           5.1310891370       -4.5541858661       -6.8125335317  CLST         268          1.0000000000
       803       268  TIP3  H1            5.2718799813       -4.4449370554       -7.8083488466  CLST         268          1.0000000000
       804       268  TIP3  H2            4.8814149424       -5.4954729389       -6.8024953880  CLST         268          1.0000000000
       805       269  TIP3  OH2           5.4178034138       10.7358271545       -0.1662357025  CLST         269          1.0000000000
       806       269  TIP3  H1            6.3946103777       10.7487496960       -0.4670800103  CLST         269          1.0000000000
       807       269  TIP3  H2            5.5276584658       11.6216386293        0.2116012556  CLST         269          1.0000000000
       808       270  TIP3  OH2           1.1669772269        9.4327333086       -8.0458496981  CLST         270          1.0000000000
       809       270  TIP3  H1            1.2861942849        8.6334742504       -8.6134885788  CLST         270          1.0000000000
       810       270  TIP3  H2            0.7936393296        8.9273943332       -7.2311719351  CLST         270          1.0000000000
       811       271  TIP3  OH2          -6.5243802380       -9.0720710801       -2.1494032461  CLST         271          1.0000000000
       812       271  TIP3  H1           -5.7623486108       -9.2403273066       -1.5512886344  CLST         271          1.0000000000
       813       271  TIP3  H2           -7.1736131546       -9.0050076252       -1.4066299623  CLST         271          1.0000000000
       814       272  TIP3  OH2           9.5255115238       -8.2175713278        5.7406222842  CLST         272          1.0000000000
       815       272  TIP3  H1            8.5461543276       -8.3857334839        5.7020041743  CLST         272          1.0000000000
       816       272  TIP3  H2            9.6170025076       -7.7015687085        4.8981740556  CLST         272          1.0000000000
       817       273  TIP3  OH2         -13.9939484722        9.5219222833        3.1759417129  CLST         273          1.0000000000
       818       273  TIP3  H1          -14.2253765666        9.9286740330        4.0819854329  CLST         273          1.0000000000
       819       273  TIP3  H2          -13.7001808187        8.7010419870        3.6517630062  CLST         273          1.0000000000
       820       274  TIP3  OH2           4.0446313266       12.9409679370       -4.0552225899  CLST         274          1.0000000000
       821       274  TIP3  H1            3.7941799049       12.3263549011       -3.2802231596  CLST         274          1.0000000000
       822       274  TIP3  H2            4.3273981154       13.7010453786       -3.7954056253  CLST         274          1.0000000000
       823       275  TIP3  OH2           8.8588058242      -11.2303899989        5.8139904930  CLST         275          1.0000000000
       824       275  TIP3  H1            9.5138308221      -10.5263348727        5.9099397190  CLST         275          1.0000000000
       825       275  TIP3  H2            9.3480414535      -12.0430368827        5.4802682106  CLST         275          1.0000000000
       826       276  TIP3  OH2          -0.1886376911       -5.9407918830        1.5008155958  CLST         276          1.0000000000
       827       276  TIP3  H1           -0.7500928718       -6.3720717677        0.8276109926  CLST         276          1.0000000000
       828       276  TIP3  H2           -0.7348218650       -5.1993488740        1.8596721228  CLST         276          1.0000000000
       829       277  TIP3  OH2           6.5289596785        6.5063943220       -6.9056390189  CLST         277          1.0000000000
       830       277  TIP3  H1            6.0139778193        5.7812176525       -7.2952497709  CLST         277          1.0000000000
       831       277  TIP3  H2            6.3707207190        7.2725734973       -7.4927767572  CLST         277          1.0000000000
       832       278  TIP3  OH2          -0.6951972843       -7.4895327669        3.4289522170  CLST         278          1.0000000000
       833       278  TIP3  H1           -0.4435609448       -6.8863039622        2.6799508089  CLST         278          1.0000000000
       834       278  TIP3  H2           -0.7764145448       -6.8315748476        4.1551079807  CLST         278          1.0000000000
       835       279  TIP3  OH2         -13.5572710586        6.2755643841        0.4814254524  CLST         279          1.0000000000
       836       279  TIP3  H1          -13.6225274251        5.2598844800        0.2400944930  CLST         279          1.0000000000
       837       279  TIP3  H2          -12.5358806738        6.2621007834        0.7266708127  CLST         279          1.0000000000
       838       280  TIP3  OH2          -3.3072584117      -10.0703474342        5.4812493611  CLST         280          1.0000000000
       839       280  TIP3  H1           -3.2216482673       -9.1496702752        5.7424012708  CLST         280          1.0000000000
       840       280  TIP3  H2           -3.8751922862       -9.8517814949        4.7331281892  CLST         280          1.0000000000
       841       281  TIP3  OH2           8.1946641014        7.6794095805      -10.6821250922  CLST         281          1.0000000000
       842       281  TIP3  H1            8.5504264966        8.5985171283      -10.7455725319  CLST         281          1.0000000000
       843       281  TIP3  H2            7.2349482198        7.9132723516      -10.7483254795  CLST         281          1.0000000000
       844       282  TIP3  OH2          -7.6708319402      -11.8705666652        9.9371787509  CLST         282          1.0000000000
       845       282  TIP3  H1           -8.5718835731      -11.6214417844        9.6332977072  CLST         282          1.0000000000
       846       282  TIP3  H2           -7.2418430668      -12.2485836740        9.0896702555  CLST         282          1.0000000000
       847       283  TIP3  OH2           4.3737268166        8.6393717350       -4.6389238622  CLST         283          1.0000000000
       848       283  TIP3  H1            4.5928060450        9.6003678384       -4.7222324954  CLST         283          1.0000000000
       849       283  TIP3  H2            3.8199591511        8.5817108472       -3.8222646903  CLST         283          1.0000000000
       850       284  TIP3  OH2          11.9054650729        8.2986371640       -1.4812938543  CLST         284          1.0000000000
       851       284  TIP3  H1           12.1957078733        7.7808883053       -2.2320780974  CLST         284          1.0000000000
       852       284  TIP3  H2           11.0524434640        8.6121051342       -1.7469512732  CLST         284          1.0000000000
       853       285  TIP3  OH2          -5.4065963940        1.9675162512        8.8836927625  CLST         285          1.0000000000
       854       285  TIP3  H1           -4.5810800784        1.7822885945        8.4181939612  CLST         285          1.0000000000
       855       285  TIP3  H2           -5.0142328296        2.6959187470        9.4668532337  CLST         285          1.0000000000
       856       286  TIP3  OH2           2.9054165037        5.7170806881       -0.5715576126  CLST         286          1.0000000000
       857       286  TIP3  H1            2.2290953721        5.5793252781        0.1389542101  CLST         286          1.0000000000
       858       286  TIP3  H2            3.6380396989        5.8271353791        0.1650318587  CLST         286          1.0000000000
       859       287  TIP3  OH2          -4.3075333527        9.2211587496       11.1826963723  CLST         287          1.0000000000
       860       287  TIP3  H1           -4.7423049347        9.9060665611       11.7700732111  CLST         287          1.0000000000
       861       287  TIP3  H2           -5.0843752922        8.9541898546       10.6663358047  CLST         287          1.0000000000
       862       288  TIP3  OH2           5.7597009121        3.7061226025       -9.4715787542  CLST         288          1.0000000000
       863       288  TIP3  H1            5.7117152851        3.0596200493      -10.1421608872  CLST         288          1.0000000000
       864       288  TIP3  H2            6.4639712014        4.3114544290       -9.8594609712  CLST         288          1.0000000000
       865       289  TIP3  OH2          -7.0231165353       -5.2587391503       -8.1706234016  CLST         289          1.0000000000
       866       289  TIP3  H1           -7.7752437835       -4.6018124312       -8.0764045625  CLST         289          1.0000000000
       867       289  TIP3  H2           -6.3145722528       -4.8573636614       -7.7825152134  CLST         289          1.0000000000
       868       290  TIP3  OH2           2.2982812990      -12.0088015606       11.2372464343  CLST         290          1.0000000000
       869       290  TIP3  H1            3.0208892581      -12.5208795446       10.8787390600  CLST         290          1.0000000000
       870       290  TIP3  H2            2.7503789519      -11.4723135836       11.9195027893  CLST         290          1.0000000000
       871       291  TIP3  OH2         -10.2845330394       -3.7218779983        2.8654192409  CLST         291          1.0000000000
       872       291  TIP3  H1          -11.1034531075       -4.1957401078        3.1221927107  CLST         291          1.0000000000
       873       291  TIP3  H2          -10.0194228392       -3.9476828394        1.9890737001  CLST         291          1.0000000000
       874       292  TIP3  OH2          12.1523523733        3.5754894772       -4.6243668305  CLST         292          1.0000000000
       875       292  TIP3  H1           11.2022099553        3.4103347112       -4.4228943442  CLST         292          1.0000000000
       876       292  TIP3  H2           12.0282673139        4.1271863432       -5.4698307221  CLST         292          1.0000000000
       877       293  TIP3  OH2           8.9436995627       10.6329694280       11.0903351940  CLST         293          1.0000000000
       878       293  TIP3  H1            8.7296000240       11.4467951461       11.5609962957  CLST         293          1.0000000000
       879       293  TIP3  H2            9.0923161301       11.0058074608       10.1640359502  CLST         293          1.0000000000
       880       294  TIP3  OH2           4.1141892546        4.5968718294       -2.3917889430  CLST         294          1.0000000000
       881       294  TIP3  H1            3.6035041840        5.1246917303       -1.6852267567  CLST         294          1.0000000000
       882       294  TIP3  H2            4.2209546465        5.2275489579       -3.1386387041  CLST         294          1.0000000000
       883       295  TIP3  OH2          -2.4109637077      -13.4193110246       -8.6901384533  CLST         295          1.0000000000
       884       295  TIP3  H1           -3.1062448524      -13.1101898720       -8.0401135837  CLST         295          1.0000000000
       885       295  TIP3  H2           -1.5946945561      -13.1882937148       -8.1762423249  CLST         295          1.0000000000
       886       296  TIP3  OH2          -1.5341114787       11.5160919624      -13.0766353366  CLST         296          1.0000000000
       887       296  TIP3  H1           -0.6670357493       11.1506343914      -13.3534257362  CLST         296          1.0000000000
       888       296  TIP3  H2           -1.4651517372       11.2212292429      -12.1339776965  CLST         296          1.0000000000
       889       297  TIP3  OH2           8.0232127307       -0.4729976455       11.4804686236  CLST         297          1.0000000000
       890       297  TIP3  H1            8.4513643841       -1.3331971507       11.2403657846  CLST         297          1.0000000000
       891       297  TIP3  H2            7.1843141392       -0.8986689732       11.7877536062  CLST         297          1.0000000000
       892       298  TIP3  OH2           0.9858895945       -1.2412565928       -7.4581693085  CLST         298          1.0000000000
       893       298  TIP3  H1            1.4691380763       -0.7008059391       -8.1653900110  CLST         298          1.0000000000
       894       298  TIP3  H2            0.7522702573       -2.0111052348       -8.0347950392  CLST         298          1.0000000000
       895       299  TIP3  OH2           2.9414810105       10.3582931118       12.7103107937  CLST         299          1.0000000000
       896       299  TIP3  H1            2.1564390767       10.7538946894       12.2395429253  CLST         299          1.0000000000
       897       299  TIP3  H2            2.3523506777        9.7797511582       13.1706310092  CLST         299          1.0000000000
       898       300  TIP3  OH2         -10.8498771058        5.2765629835       -3.6595307729  CLST         300          1.0000000000
       899       300  TIP3  H1          -10.5468179664        5.8055497781       -4.4592620135  CLST         300          1.0000000000
       900       300  TIP3  H2          -10.8962857207        6.1181160422       -3.0979007498  CLST         300          1.0000000000
       901       301  TIP3  OH2           9.5649035479       -8.3546140565       11.3113861230  CLST         301          1.0000000000
       902       301  TIP3  H1            9.3447550652       -8.1503392576       12.2568195888  CLST         301          1.0000000000
       903       301  TIP3  H2            9.5883959057       -9.3555361341       11.4108628088  CLST         301          1.0000000000
       904       302  TIP3  OH2           7.6907763720       12.9534035828        5.4283199900  CLST         302          1.0000000000
       905       302  TIP3  H1            7.3053800191       13.2778382620        4.6295247065  CLST         302          1.0000000000
       906       302  TIP3  H2            6.9507218236       12.3397202530        5.5751453246  CLST         302          1.0000000000
       907       303  TIP3  OH2         -10.9412125949        1.1877398035       -2.0381152410  CLST         303          1.0000000000
       908       303  TIP3  H1           -9.9486708856        1.1972548934       -1.8331480339  CLST         303          1.0000000000
       909       303  TIP3  H2          -10.9504043256        0.6149653858       -2.8603887201  CLST         303          1.0000000000
       910       304  TIP3  OH2          -8.0396687782        1.1240992854      -14.8479474828  CLST         304          1.0000000000
       911       304  TIP3  H1           -7.4963921146        0.3160169069      -14.7044365037  CLST         304          1.0000000000
       912       304  TIP3  H2           -7.6570348613        1.7916018025      -15.3334494829  CLST         304          1.0000000000
       913       305  TIP3  OH2           3.5797308280       -3.9320103281       13.9544899313  CLST         305          1.0000000000
       914       305  TIP3  H1            4.3869726590       -3.9293484607       13.4360825530  CLST         305          1.0000000000
       915       305  TIP3  H2            3.3774578658       -2.9824745971       13.7995451296  CLST         305          1.0000000000
       916       306  TIP3  OH2           8.9239337642      -12.1030675797      -11.2620099519  CLST         306          1.0000000000
       917       306  TIP3  H1            9.6261877881      -11.8873805290      -11.9376709794  CLST         306          1.0000000000
       918       306  TIP3  H2            9.2738243844      -12.8839179371      -11.0002279658  CLST         306          1.0000000000
       919       307  TIP3  OH2           9.3524877248        7.7846170949       -7.4716156944  CLST         307          1.0000000000
       920       307  TIP3  H1            8.7019590077        8.4030568594       -7.7992904718  CLST         307          1.0000000000
       921       307  TIP3  H2            9.4907922553        8.0536259575       -6.5464450825  CLST         307          1.0000000000
       922       308  TIP3  OH2         -10.8586281716       -4.8830741626        8.7913004734  CLST         308          1.0000000000
       923       308  TIP3  H1          -10.8324073321       -5.6919465943        9.4411367058  CLST         308          1.0000000000
       924       308  TIP3  H2           -9.9048745376       -4.6366230908        9.0822177275  CLST         308          1.0000000000
       925       309  TIP3  OH2          -2.0136663317       -0.4989125069        5.5002975562  CLST         309          1.0000000000
       926       309  TIP3  H1           -2.8467817960       -0.9031737624        5.1478912046  CLST         309          1.0000000000
       927       309  TIP3  H2           -1.8854581476       -1.2555539845        6.1389075288  CLST         309          1.0000000000
       928       310  TIP3  OH2          -4.9738556100       -0.7682164442        7.3518336545  CLST         310          1.0000000000
       929       310  TIP3  H1           -4.4164198875       -0.0109730671        7.6183540883  CLST         310          1.0000000000
       930       310  TIP3  H2           -5.1046805695       -1.2227535236        8.2339160662  CLST         310          1.0000000000
       931       311  TIP3  OH2          -7.1186965043        8.3727497558      -12.3264209093  CLST         311          1.0000000000
       932       311  TIP3  H1           -6.5018662249        7.6648197399      -12.7050541974  CLST         311          1.0000000000
       933       311  TIP3  H2           -7.3109536772        7.9570605124      -11.4680562509  CLST         311          1.0000000000
       934       312  TIP3  OH2           6.4459295678       -0.9059377475       -6.1848301139  CLST         312          1.0000000000
       935       312  TIP3  H1            6.3037649827       -0.1387986550       -5.6244352900  CLST         312          1.0000000000
       936       312  TIP3  H2            6.5312164225       -1.5751041658       -5.4518950514  CLST         312          1.0000000000
       937       313  TIP3  OH2          -8.8456036259      -10.6112411351        7.2629283262  CLST         313          1.0000000000
       938       313  TIP3  H1           -8.2206457057       -9.8377845120        6.9999111253  CLST         313          1.0000000000
       939       313  TIP3  H2           -9.2269748712      -10.7436477838        6.3562584979  CLST         313          1.0000000000
       940       314  TIP3  OH2          -1.4176465710      -12.1379668431      -10.7908551668  CLST         314          1.0000000000
       941       314  TIP3  H1           -1.4054611422      -11.3580996695      -10.1685930026  CLST         314          1.0000000000
       942       314  TIP3  H2           -1.9286654113      -12.7534200829      -10.1708320513  CLST         314          1.0000000000
       943       315  TIP3  OH2          -1.3627541902       -0.6903811857       -6.4322538201  CLST         315          1.0000000000
       944       315  TIP3  H1           -0.4503946511       -0.9304385030       -6.8046276483  CLST         315          1.0000000000
       945       315  TIP3  H2           -1.1570279868       -0.2383176486       -5.5438981275  CLST         315          1.0000000000
       946       316  TIP3  OH2         -13.3140021205       -3.8651678099       -5.4125045202  CLST         316          1.0000000000
       947       316  TIP3  H1          -12.7702194777       -4.2532083613       -6.1182147816  CLST         316          1.0000000000
       948       316  TIP3  H2          -12.8926117792       -2.9425387134       -5.5369928850  CLST         316          1.0000000000
       949       317  TIP3  OH2          -6.0641068456       -0.0350483491       -3.6444067464  CLST         317          1.0000000000
       950       317  TIP3  H1           -5.1969999270       -0.0848481676       -3.0894861062  CLST         317          1.0000000000
       951       317  TIP3  H2           -6.6571314496        0.1121022993       -2.8707354534  CLST         317          1.0000000000
       952       318  TIP3  OH2          -3.9888154688       -9.4942708066       -9.4176901115  CLST         318          1.0000000000
       953       318  TIP3  H1           -4.0356036218       -9.7654248626       -8.4431582005  CLST         318          1.0000000000
       954       318  TIP3  H2           -3.0040978473       -9.3559310670       -9.4085617994  CLST         318          1.0000000000
       955       319  TIP3  OH2           5.7232734513       10.8248584685        8.6644517674  CLST         319          1.0000000000
       956       319  TIP3  H1            6.5065999064       10.6387206800        8.1083881861  CLST         319          1.0000000000
       957       319  TIP3  H2            5.9363320418       11.6971945556        8.9932820031  CLST         319          1.0000000000
       958       320  TIP3  OH2         -10.6032262794        1.0795574311      -14.5166170387  CLST         320          1.0000000000
       959       320  TIP3  H1           -9.6188270295        0.9665570567      -14.7794499622  CLST         320          1.0000000000
       960       320  TIP3  H2          -10.6262708286        0.1588320524      -14.1949223856  CLST         320          1.0000000000
       961       321  TIP3  OH2          -9.7489622117       10.2396408047       -9.7854618364  CLST         321          1.0000000000
       962       321  TIP3  H1          -10.5646538961       10.1144756861       -9.5597877292  CLST         321          1.0000000000
       963       321  TIP3  H2           -9.7295864745       10.2513873857      -10.8186747525  CLST         321          1.0000000000
       964       322  TIP3  OH2         -12.5493565126       -1.6495083257       -2.4173603273  CLST         322          1.0000000000
       965       322  TIP3  H1          -12.2927456711       -1.2277623892       -3.2595462006  CLST         322          1.0000000000
       966       322  TIP3  H2          -11.6705978620       -1.6268104422       -1.9616621719  CLST         322          1.0000000000
       967       323  TIP3  OH2          -1.1550322852        4.0133981438        4.3160419735  CLST         323          1.0000000000
       968       323  TIP3  H1           -0.5313912497        3.2609946204        4.4198998061  CLST         323          1.0000000000
       969       323  TIP3  H2           -1.0856640561        4.2000828218        3.3557130529  CLST         323          1.0000000000
       970       324  TIP3  OH2         -10.8908446043        6.3126231336        1.4348202037  CLST         324          1.0000000000
       971       324  TIP3  H1          -11.1598789492        5.8179777828        2.2316731978  CLST         324          1.0000000000
       972       324  TIP3  H2          -10.1072294657        6.8204369076        1.8207458908  CLST         324          1.0000000000
       973       325  TIP3  OH2          -4.6968732296        0.8445995618        3.5794276224  CLST         325          1.0000000000
       974       325  TIP3  H1           -5.6842743948        0.8527407453        3.7337967380  CLST         325          1.0000000000
       975       325  TIP3  H2           -4.6620824004        1.5199799748        2.9058176242  CLST         325          1.0000000000
       976       326  TIP3  OH2           9.0852542121        8.6400380833       -2.8079380110  CLST         326          1.0000000000
       977       326  TIP3  H1            9.0969074417        7.9313015358       -2.1401197833  CLST         326          1.0000000000
       978       326  TIP3  H2            8.2775881558        8.4315004822       -3.3634415347  CLST         326          1.0000000000
       979       327  TIP3  OH2          10.3668781329       -3.6001865137      -13.1333784057  CLST         327          1.0000000000
       980       327  TIP3  H1           10.3926800318       -3.4387238727      -14.0090732484  CLST         327          1.0000000000
       981       327  TIP3  H2           10.2463756238       -2.8765098245      -12.5044917075  CLST         327          1.0000000000
       982       328  TIP3  OH2           2.1584024989        7.0528567163       -9.7532996609  CLST         328          1.0000000000
       983       328  TIP3  H1            2.0617389406        6.3372249342       -9.0807557415  CLST         328          1.0000000000
       984       328  TIP3  H2            3.1361582542        6.9033502639       -9.7660865559  CLST         328          1.0000000000
       985       329  TIP3  OH2           1.4106704672      -11.6894181369       -2.3021362446  CLST         329          1.0000000000
       986       329  TIP3  H1            1.3582484937      -10.7042255061       -2.5353966860  CLST         329          1.0000000000
       987       329  TIP3  H2            2.2696866857      -11.5510736286       -1.7769991165  CLST         329          1.0000000000
       988       330  TIP3  OH2          -9.4269764190       -0.9264062926        3.3705297556  CLST         330          1.0000000000
       989       330  TIP3  H1           -9.6402094687       -1.8866460693        3.3728516243  CLST         330          1.0000000000
       990       330  TIP3  H2          -10.1883915189       -0.5969241826        3.8474557052  CLST         330          1.0000000000
       991       331  TIP3  OH2          12.3745808683        9.7865268274       -9.0640708116  CLST         331          1.0000000000
       992       331  TIP3  H1           13.1514526684        9.5707391037       -9.5174327922  CLST         331          1.0000000000
       993       331  TIP3  H2           11.9587722426        8.8687339584       -8.9594659737  CLST         331          1.0000000000
       994       332  TIP3  OH2          11.3545277265       -1.2238794580       -4.4239918551  CLST         332          1.0000000000
       995       332  TIP3  H1           12.1919386309       -1.6564988826       -4.7881844354  CLST         332          1.0000000000
       996       332  TIP3  H2           11.7675542056       -0.4567540490       -3.9867109610  CLST         332          1.0000000000
       997       333  TIP3  OH2          10.6988891874      -14.2435397445        7.9787750791  CLST         333          1.0000000000
       998       333  TIP3  H1            9.7368814245      -14.1115187246        8.1631532428  CLST         333          1.0000000000
       999       333  TIP3  H2           10.7020140254      -14.0581874929        7.0348197674  CLST         333          1.0000000000
      1000       334  TIP3  OH2         -10.7679665046       -9.6374796056        9.0714119591  CLST         334          1.0000000000
      1001       334  TIP3  H1          -11.4892281381      -10.0806692164        8.5377705556  CLST         334          1.0000000000
      1002       334  TIP3  H2          -10.0409092331       -9.9347464136        8.4424526034  CLST         334          1.0000000000
      1003       335  TIP3  OH2           6.8747614248      -10.1245197150        1.4238956148  CLST         335          1.0000000000
      1004       335  TIP3  H1            6.7690132148      -10.0731463728        2.3880801104  CLST         335          1.0000000000
      1005       335  TIP3  H2            5.9290387704      -10.2755951875        1.1968390406  CLST         335          1.0000000000
      1006       336  TIP3  OH2          -9.2735720828       -3.5608384336       -3.5064439271  CLST         336          1.0000000000
      1007       336  TIP3  H1           -9.5898188591       -4.4379502706       -3.8158768209  CLST         336          1.0000000000
      1008       336  TIP3  H2           -9.2517574831       -3.1644365556       -4.3964872351  CLST         336          1.0000000000
      1009       337  TIP3  OH2          -1.4450003144       -4.9371065049        8.1548905112  CLST         337          1.0000000000
      1010       337  TIP3  H1           -1.1419728795       -4.4832765996        9.1252420252  CLST         337          1.0000000000
      1011       337  TIP3  H2           -1.8582937550       -4.0051675437        7.9183159364  CLST         337          1.0000000000
      1012       338  TIP3  OH2          -0.5688664606        2.6682611114       10.6341665566  CLST         338          1.0000000000
      1013       338  TIP3  H1           -0.4229999630        2.4649826202        9.6763699949  CLST         338          1.0000000000
      1014       338  TIP3  H2           -0.2012708812        1.8451962887       11.0222568916  CLST         338          1.0000000000
      1015       339  TIP3  OH2           7.7559172992        7.9696548094        2.7891504886  CLST         339          1.0000000000
      1016       339  TIP3  H1            7.3285021566        8.5297456684        3.5060577783  CLST         339          1.0000000000
      1017       339  TIP3  H2            7.0581988535        7.8815359480        2.0936306658  CLST         339          1.0000000000
      1018       340  TIP3  OH2          -4.7788402705      -11.7406642760      -11.2655636312  CLST         340          1.0000000000
      1019       340  TIP3  H1           -4.5915880381      -11.0699423971      -10.5376230121  CLST         340          1.0000000000
      1020       340  TIP3  H2           -4.3902317209      -12.4994851917      -10.8972545500  CLST         340          1.0000000000
      1021       341  TIP3  OH2          -6.7261937482        4.5945598322        9.2589648804  CLST         341          1.0000000000
      1022       341  TIP3  H1           -5.7946401473        4.4939418050        9.5582579539  CLST         341          1.0000000000
      1023       341  TIP3  H2           -6.9607591839        3.6481736698        9.2317590480  CLST         341          1.0000000000
      1024       342  TIP3  OH2          -4.4919739793      -11.1439045546       13.9649152218  CLST         342          1.0000000000
      1025       342  TIP3  H1           -5.2208245726      -11.2129582572       13.2802742191  CLST         342          1.0000000000
      1026       342  TIP3  H2           -4.9169797313      -10.9586852250       14.7011938467  CLST         342          1.0000000000
      1027       343  TIP3  OH2           1.4369526052       -8.9700203507       -9.8815387873  CLST         343          1.0000000000
      1028       343  TIP3  H1            1.6149017578       -8.0683647936      -10.2483774711  CLST         343          1.0000000000
      1029       343  TIP3  H2            1.6282573383       -9.5665561252      -10.6130654896  CLST         343          1.0000000000
      1030       344  TIP3  OH2           5.5065125092       -4.0910331927        6.4025837440  CLST         344          1.0000000000
      1031       344  TIP3  H1            4.8338795158       -4.5938525591        6.9152320752  CLST         344          1.0000000000
      1032       344  TIP3  H2            6.0418843856       -4.7761810099        5.8624818384  CLST         344          1.0000000000
      1033       345  TIP3  OH2          13.0075400505        7.1230072617        8.7611802074  CLST         345          1.0000000000
      1034       345  TIP3  H1           12.3277662248        6.7694448696        9.1226479990  CLST         345          1.0000000000
      1035       345  TIP3  H2           12.4875049119        7.4516193301       10.0560461857  CLST         345          1.0000000000
      1036       346  TIP3  OH2           9.5349679607        9.3903763825        0.9611456324  CLST         346          1.0000000000
      1037       346  TIP3  H1            9.7020692722       10.1107322766        1.6468780737  CLST         346          1.0000000000
      1038       346  TIP3  H2            8.9425368487        8.7796723768        1.4732368410  CLST         346          1.0000000000
      1039       347  TIP3  OH2          -5.0434528943        2.8620214978       -9.7054405963  CLST         347          1.0000000000
      1040       347  TIP3  H1           -5.7032096444        3.0056678352       -8.9731771250  CLST         347          1.0000000000
      1041       347  TIP3  H2           -4.2514978074        2.9901655288       -9.1701212260  CLST         347          1.0000000000
      1042       348  TIP3  OH2          -1.2625736271        6.2056801457        5.7227963110  CLST         348          1.0000000000
      1043       348  TIP3  H1           -1.3328210319        5.3414248527        5.2030398602  CLST         348          1.0000000000
      1044       348  TIP3  H2           -0.5907050564        6.5815811255        5.1099641489  CLST         348          1.0000000000
      1045       349  TIP3  OH2          -4.1030200869        5.1441149252       -2.5352161949  CLST         349          1.0000000000
      1046       349  TIP3  H1           -3.8056261022        4.5930838477       -3.2740084192  CLST         349          1.0000000000
      1047       349  TIP3  H2           -3.3025599515        5.7818604922       -2.5350417923  CLST         349          1.0000000000
      1048       350  TIP3  OH2          -2.6238441942        8.9305816899        5.2335379777  CLST         350          1.0000000000
      1049       350  TIP3  H1           -3.1507051784        8.6452938154        4.4263751810  CLST         350          1.0000000000
      1050       350  TIP3  H2           -2.5055146938        8.0292735271        5.5898879322  CLST         350          1.0000000000
      1051       351  TIP3  OH2           4.7384361073       -7.6042520183       -7.6212734937  CLST         351          1.0000000000
      1052       351  TIP3  H1            4.1354787778       -8.3770552322       -7.5576546758  CLST         351          1.0000000000
      1053       351  TIP3  H2            4.7220824836       -7.4944896202       -8.6192342905  CLST         351          1.0000000000
      1054       352  TIP3  OH2         -10.4597046599      -11.0261333469        1.6873881557  CLST         352          1.0000000000
      1055       352  TIP3  H1           -9.5146103714      -10.7890249744        1.4684713279  CLST         352          1.0000000000
      1056       352  TIP3  H2          -10.9797117113      -10.4199985598        1.0744232733  CLST         352          1.0000000000
      1057       353  TIP3  OH2          10.9239533241       -8.1866073820       -8.6688368308  CLST         353          1.0000000000
      1058       353  TIP3  H1           10.0539132124       -8.6431735517       -8.7377009086  CLST         353          1.0000000000
      1059       353  TIP3  H2           11.1256963933       -8.2913234935       -7.7330611241  CLST         353          1.0000000000
      1060       354  TIP3  OH2           6.8329211880      -10.5621426887        4.0400593309  CLST         354          1.0000000000
      1061       354  TIP3  H1            7.5941909575      -10.8936277923        4.5395060436  CLST         354          1.0000000000
      1062       354  TIP3  H2            6.6775629013       -9.7862684023        4.7277032907  CLST         354          1.0000000000
      1063       355  TIP3  OH2          -7.1837926352        9.0290510617       -8.9139248378  CLST         355          1.0000000000
      1064       355  TIP3  H1           -6.9008213066        9.9395440663       -8.6998725926  CLST         355          1.0000000000
      1065       355  TIP3  H2           -8.1410873593        9.2326927499       -8.9391838526  CLST         355          1.0000000000
      1066       356  TIP3  OH2          12.5256044053        0.9759855378       -2.0065934935  CLST         356          1.0000000000
      1067       356  TIP3  H1           11.5211467195        0.7978401138       -2.0906019749  CLST         356          1.0000000000
      1068       356  TIP3  H2           12.6446809290        0.9339506220       -1.0377986171  CLST         356          1.0000000000
      1069       357  TIP3  OH2          -0.5396058332       -0.4208744001       -1.7803034653  CLST         357          1.0000000000
      1070       357  TIP3  H1            0.3403226500       -0.9602471996       -1.8162271742  CLST         357          1.0000000000
      1071       357  TIP3  H2           -0.6421352322       -0.3950617727       -2.7462661531  CLST         357          1.0000000000
      1072       358  TIP3  OH2          -5.5730142374        7.0547811593       -7.6525725078  CLST         358          1.0000000000
      1073       358  TIP3  H1           -6.0224848845        7.7523435914       -8.2064759168  CLST         358          1.0000000000
      1074       358  TIP3  H2           -6.3606316531        6.5553009598       -7.3492296692  CLST         358          1.0000000000
      1075       359  TIP3  OH2          -5.0087852763       12.1484689984        6.0171448908  CLST         359          1.0000000000
      1076       359  TIP3  H1           -5.2019496617       12.1252903663        5.0374370477  CLST         359          1.0000000000
      1077       359  TIP3  H2           -4.0357765495       12.1343011598        5.9216676486  CLST         359          1.0000000000
      1078       360  TIP3  OH2          -6.9099247934        5.6972248994       -3.2247080604  CLST         360          1.0000000000
      1079       360  TIP3  H1           -7.0696805723        6.2446249837       -2.4447832363  CLST         360          1.0000000000
      1080       360  TIP3  H2           -5.9478443154        5.4521649290       -2.9520170820  CLST         360          1.0000000000
      1081       361  TIP3  OH2          -1.4923961324       -1.0542270549       10.0493088103  CLST         361          1.0000000000
      1082       361  TIP3  H1           -1.4057152591       -0.3527316785       10.7527603567  CLST         361          1.0000000000
      1083       361  TIP3  H2           -1.5854009150       -1.9091079829       10.6206090229  CLST         361          1.0000000000
      1084       362  TIP3  OH2         -10.6026442250        2.8570928905        0.5347810126  CLST         362          1.0000000000
      1085       362  TIP3  H1          -10.3048654028        3.4980082686       -0.1372882249  CLST         362          1.0000000000
      1086       362  TIP3  H2          -11.1699235318        2.2386343997        0.0151353184  CLST         362          1.0000000000
      1087       363  TIP3  OH2          10.6188759334        2.6086687109       10.0371694015  CLST         363          1.0000000000
      1088       363  TIP3  H1           10.9018110353        1.6311711342       10.0752560271  CLST         363          1.0000000000
      1089       363  TIP3  H2           11.0879619520        3.3230486984       10.4536329314  CLST         363          1.0000000000
      1090       364  TIP3  OH2           7.6712548225       -5.7157960636       -6.3121771623  CLST         364          1.0000000000
      1091       364  TIP3  H1            6.8767235876       -5.2206661649       -6.5769149439  CLST         364          1.0000000000
      1092       364  TIP3  H2            8.2588565738       -5.6431881712       -7.1863245598  CLST         364          1.0000000000
      1093       365  TIP3  OH2          -6.0381281589       -6.7603269905        2.5998302264  CLST         365          1.0000000000
      1094       365  TIP3  H1           -6.4667412834       -5.8699383306        2.5370015512  CLST         365          1.0000000000
      1095       365  TIP3  H2           -6.8844734510       -7.3093868829        2.9196401622  CLST         365          1.0000000000
      1096       366  TIP3  OH2           1.9864572473       -1.4745315629       -2.8891417297  CLST         366          1.0000000000
      1097       366  TIP3  H1            2.8803889416       -1.5028037298       -2.5050020402  CLST         366          1.0000000000
      1098       366  TIP3  H2            2.1794456732       -1.0104564384       -3.7159823592  CLST         366          1.0000000000
      1099       367  TIP3  OH2          -5.2514445537       11.5829376877       12.5035384288  CLST         367          1.0000000000
      1100       367  TIP3  H1           -5.9320798441       11.9782053814       11.9070620482  CLST         367          1.0000000000
      1101       367  TIP3  H2           -5.3875384970       12.1444499031       13.2425590123  CLST         367          1.0000000000
      1102       368  TIP3  OH2          -2.6869579258        6.5433750586        1.1269620283  CLST         368          1.0000000000
      1103       368  TIP3  H1           -2.8206757604        7.2600227078        0.4329831983  CLST         368          1.0000000000
      1104       368  TIP3  H2           -3.0777269843        7.0355362791        1.8941259551  CLST         368          1.0000000000
      1105       369  TIP3  OH2         -11.5898920358       -1.8134923132       -6.3593861671  CLST         369          1.0000000000
      1106       369  TIP3  H1          -10.8772010448       -2.4721007157       -6.2240090122  CLST         369          1.0000000000
      1107       369  TIP3  H2          -11.8001824486       -2.0911817567       -7.3000098724  CLST         369          1.0000000000
      1108       370  TIP3  OH2         -11.9622009854        5.5302878661      -11.4897392797  CLST         370          1.0000000000
      1109       370  TIP3  H1          -12.3419293421        4.8572694593      -12.2032846400  CLST         370          1.0000000000
      1110       370  TIP3  H2          -12.6904540035        5.3837883353      -10.9119265797  CLST         370          1.0000000000
      1111       371  TIP3  OH2           2.1873301288        7.8781006789        5.8498336967  CLST         371          1.0000000000
      1112       371  TIP3  H1            2.0011730811        7.7830174195        6.8121823342  CLST         371          1.0000000000
      1113       371  TIP3  H2            3.1220447624        7.7235421117        5.7703423887  CLST         371          1.0000000000
      1114       372  TIP3  OH2           8.1340390073       -7.4491411499        9.1299080132  CLST         372          1.0000000000
      1115       372  TIP3  H1            8.7349974085       -7.8430570870        8.4738956961  CLST         372          1.0000000000
      1116       372  TIP3  H2            8.6418511214       -7.7182689420        9.9268761571  CLST         372          1.0000000000
      1117       373  TIP3  OH2          10.9961936349       -0.3566221863        6.5935949500  CLST         373          1.0000000000
      1118       373  TIP3  H1           11.2919006563        0.4784030664        6.0780573984  CLST         373          1.0000000000
      1119       373  TIP3  H2           10.3024844967       -0.4441492491        5.8820234466  CLST         373          1.0000000000
      1120       374  TIP3  OH2          -9.3926512383        4.6705589232      -12.1899038738  CLST         374          1.0000000000
      1121       374  TIP3  H1           -9.3303322515        5.3177876845      -12.8466801050  CLST         374          1.0000000000
      1122       374  TIP3  H2          -10.2203316942        5.0349286304      -11.6670268832  CLST         374          1.0000000000
      1123       375  TIP3  OH2           9.8367091521       -5.4281438475       -2.8133775968  CLST         375          1.0000000000
      1124       375  TIP3  H1           10.4252986617       -5.1374213151       -3.5341720945  CLST         375          1.0000000000
      1125       375  TIP3  H2           10.1310172771       -6.3618787463       -2.7045881817  CLST         375          1.0000000000
      1126       376  TIP3  OH2          -2.1713088430      -10.9695551124       12.0219572916  CLST         376          1.0000000000
      1127       376  TIP3  H1           -2.8178801211      -10.8425061421       12.8107477162  CLST         376          1.0000000000
      1128       376  TIP3  H2           -2.7935238246      -11.5084416302       11.5032509930  CLST         376          1.0000000000
      1129       377  TIP3  OH2         -10.1015106020       12.8144804804       10.4674191186  CLST         377          1.0000000000
      1130       377  TIP3  H1           -9.1914862865       12.6208126766       10.7680717857  CLST         377          1.0000000000
      1131       377  TIP3  H2           -9.8777232639       12.9981040514        9.5135438787  CLST         377          1.0000000000
      1132       378  TIP3  OH2           2.2367846371       -8.0836974238        7.3314040555  CLST         378          1.0000000000
      1133       378  TIP3  H1            2.0736703896       -7.2367878992        6.8834115625  CLST         378          1.0000000000
      1134       378  TIP3  H2            1.3801060705       -8.4308532363        7.6728049902  CLST         378          1.0000000000
      1135       379  TIP3  OH2          -9.5533860718        9.4643498810       -1.2120154346  CLST         379          1.0000000000
      1136       379  TIP3  H1           -8.9902701350        9.7248378941       -0.4766157907  CLST         379          1.0000000000
      1137       379  TIP3  H2           -9.9448235765       10.3040432227       -1.5309318166  CLST         379          1.0000000000
      1138       380  TIP3  OH2           3.1100159647       -4.1695210047      -11.2135331257  CLST         380          1.0000000000
      1139       380  TIP3  H1            2.5479121436       -3.5086206197      -11.6511132896  CLST         380          1.0000000000
      1140       380  TIP3  H2            3.4479853976       -4.6936121237      -11.9691773374  CLST         380          1.0000000000
      1141       381  TIP3  OH2          10.2079080253        4.2214127563        3.4596625072  CLST         381          1.0000000000
      1142       381  TIP3  H1            9.4137720859        4.5996713782        3.9073743200  CLST         381          1.0000000000
      1143       381  TIP3  H2           10.8387882655        4.9353782223        3.7959962502  CLST         381          1.0000000000
      1144       382  TIP3  OH2           1.8560390922       -5.5100731636        5.6900525424  CLST         382          1.0000000000
      1145       382  TIP3  H1            2.1268449561       -4.8651172334        6.4004966596  CLST         382          1.0000000000
      1146       382  TIP3  H2            2.7166182546       -5.9332983249        5.3854407977  CLST         382          1.0000000000
      1147       383  TIP3  OH2          10.2255869236        8.8043944123        4.8084644814  CLST         383          1.0000000000
      1148       383  TIP3  H1            9.4785968719        9.0489137783        4.2304628490  CLST         383          1.0000000000
      1149       383  TIP3  H2           10.4731166680        9.7135742947        5.0783345438  CLST         383          1.0000000000
      1150       384  TIP3  OH2          -3.3573684894       -1.8582910126       -8.1674502111  CLST         384          1.0000000000
      1151       384  TIP3  H1           -2.9655371171       -2.7895673589       -8.2899441358  CLST         384          1.0000000000
      1152       384  TIP3  H2           -2.6791301341       -1.4434758270       -7.5261058584  CLST         384          1.0000000000
      1153       385  TIP3  OH2           3.6914528884      -11.5506471623       -0.8912278455  CLST         385          1.0000000000
      1154       385  TIP3  H1            4.5551403694      -12.1037997099       -0.7777887702  CLST         385          1.0000000000
      1155       385  TIP3  H2            3.8623383650      -10.9673794480       -0.0984758325  CLST         385          1.0000000000
      1156       386  TIP3  OH2          -4.3303663667        9.2656451226       -6.0871129712  CLST         386          1.0000000000
      1157       386  TIP3  H1           -4.7631958189        8.4937699859       -6.4181566633  CLST         386          1.0000000000
      1158       386  TIP3  H2           -4.1769364956        9.6792937302       -7.0023273320  CLST         386          1.0000000000
      1159       387  TIP3  OH2          -9.8066335029       10.6764724596        2.7272285424  CLST         387          1.0000000000
      1160       387  TIP3  H1          -10.6289847780       10.5724038049        2.2134333260  CLST         387          1.0000000000
      1161       387  TIP3  H2           -9.1215419352       10.4091035873        2.0495426445  CLST         387          1.0000000000
      1162       388  TIP3  OH2          -1.6051254090      -12.3331972444        5.9631616908  CLST         388          1.0000000000
      1163       388  TIP3  H1           -1.9348689366      -11.3745767489        5.7570674096  CLST         388          1.0000000000
      1164       388  TIP3  H2           -1.7621194997      -12.0920574938        6.9495725256  CLST         388          1.0000000000
      1165       389  TIP3  OH2          -8.1066222848        3.2113636025       -3.6339976892  CLST         389          1.0000000000
      1166       389  TIP3  H1           -7.8181873054        4.1448286283       -3.3026712676  CLST         389          1.0000000000
      1167       389  TIP3  H2           -8.9067541548        3.5699781491       -4.0958421689  CLST         389          1.0000000000
      1168       390  TIP3  OH2          -5.7967945275       -3.9745189923        4.4611328822  CLST         390          1.0000000000
      1169       390  TIP3  H1           -5.4168999720       -3.0217267240        4.5802400624  CLST         390          1.0000000000
      1170       390  TIP3  H2           -5.0882971179       -4.3156075959        3.9377676836  CLST         390          1.0000000000
      1171       391  TIP3  OH2          -8.8041529311       -8.8504029949       -6.0518956508  CLST         391          1.0000000000
      1172       391  TIP3  H1           -9.3346111312       -9.4050252358       -6.6417310874  CLST         391          1.0000000000
      1173       391  TIP3  H2           -8.1174042600       -9.4599232570       -5.7343318674  CLST         391          1.0000000000
      1174       392  TIP3  OH2           0.9713398016       -1.9939353428       10.1799135419  CLST         392          1.0000000000
      1175       392  TIP3  H1            0.2501789955       -2.7131530365       10.5096097060  CLST         392          1.0000000000
      1176       392  TIP3  H2            0.2913513739       -1.3445673267        9.9066231233  CLST         392          1.0000000000
      1177       393  TIP3  OH2          10.8983761754      -12.2854671036       -0.6050796190  CLST         393          1.0000000000
      1178       393  TIP3  H1           11.9246685037      -10.7175359037       -0.8733064062  CLST         393          1.0000000000
      1179       393  TIP3  H2           11.1812476278      -12.7462104661       -1.4408015401  CLST         393          1.0000000000
      1180       394  TIP3  OH2           0.5390514386       11.8606337632       -8.6672256385  CLST         394          1.0000000000
      1181       394  TIP3  H1            1.1000871846       12.3748249614       -8.0191831888  CLST         394          1.0000000000
      1182       394  TIP3  H2            0.7054041262       10.9767412131       -8.2080792183  CLST         394          1.0000000000
      1183       395  TIP3  OH2           6.9523244873        7.5582563391       -4.5288433372  CLST         395          1.0000000000
      1184       395  TIP3  H1            6.0802687347        8.0353990389       -4.4471148128  CLST         395          1.0000000000
      1185       395  TIP3  H2            6.7854094588        7.2773219578       -5.4848108692  CLST         395          1.0000000000
      1186       396  TIP3  OH2          -1.1269133837       -9.9851573946       -8.8721304163  CLST         396          1.0000000000
      1187       396  TIP3  H1           -1.2460054484       -9.8937794574       -7.8588600115  CLST         396          1.0000000000
      1188       396  TIP3  H2           -0.2362174514       -9.5727381806       -9.0057034898  CLST         396          1.0000000000
      1189       397  TIP3  OH2          11.4167851644        7.2421713772       -8.8647562962  CLST         397          1.0000000000
      1190       397  TIP3  H1           12.0131799834        6.7411236950       -8.2736398618  CLST         397          1.0000000000
      1191       397  TIP3  H2           10.5829119235        7.2416678458       -8.3556342628  CLST         397          1.0000000000
      1192       398  TIP3  OH2          10.7608468108        7.7876405179       -4.8461425845  CLST         398          1.0000000000
      1193       398  TIP3  H1           10.2168949284        8.1270571090       -4.0369983856  CLST         398          1.0000000000
      1194       398  TIP3  H2           11.4557454947        7.4067309796       -4.2479245279  CLST         398          1.0000000000
      1195       399  TIP3  OH2           1.7958090832       11.1537901266        4.9429953692  CLST         399          1.0000000000
      1196       399  TIP3  H1            1.1637535865       10.4568547527        5.1680917473  CLST         399          1.0000000000
      1197       399  TIP3  H2            2.2711794541       11.1646132566        5.8040652487  CLST         399          1.0000000000
      1198       400  TIP3  OH2           3.9088932164       -2.9188089502       -5.1119336242  CLST         400          1.0000000000
      1199       400  TIP3  H1            4.7438713993       -2.7009054980       -4.6324358045  CLST         400          1.0000000000
      1200       400  TIP3  H2            4.3297637190       -3.5254059139       -5.8398600034  CLST         400          1.0000000000
      1201       401  TIP3  OH2         -14.5047330765        9.9066188703        5.5414370199  CLST         401          1.0000000000
      1202       401  TIP3  H1          -14.0526437401       10.1603482253        6.4564578307  CLST         401          1.0000000000
      1203       401  TIP3  H2          -15.4396522487        9.8917855014        5.8544403214  CLST         401          1.0000000000
      1204       402  TIP3  OH2           1.8112609440       -1.6399113380       12.7068034873  CLST         402          1.0000000000
      1205       402  TIP3  H1            1.4610064614       -2.5839373759       12.6500023026  CLST         402          1.0000000000
      1206       402  TIP3  H2            1.8157025272       -1.5788274307       11.7338838701  CLST         402          1.0000000000
      1207       403  TIP3  OH2          -2.1030846345       -7.0693821185       -0.8003723279  CLST         403          1.0000000000
      1208       403  TIP3  H1           -2.1335134861       -6.4486869226       -1.3708400998  CLST         403          1.0000000000
      1209       403  TIP3  H2           -1.9121462335       -7.9289397083       -1.3324001553  CLST         403          1.0000000000
      1210       404  TIP3  OH2          -5.0897040399       -2.4934207225        9.3101080391  CLST         404          1.0000000000
      1211       404  TIP3  H1           -4.9719272422       -2.9959965075       10.1343081377  CLST         404          1.0000000000
      1212       404  TIP3  H2           -5.3012294470       -3.2647013902        8.6737276922  CLST         404          1.0000000000
      1213       405  TIP3  OH2         -11.9391206513        7.1518424513       11.4142800095  CLST         405          1.0000000000
      1214       405  TIP3  H1          -11.7355666451        6.2568633215       10.9448360599  CLST         405          1.0000000000
      1215       405  TIP3  H2          -12.8543813967        6.9011664629       11.5327694892  CLST         405          1.0000000000
      1216       406  TIP3  OH2           0.8313710512        7.8561764201      -12.2223955288  CLST         406          1.0000000000
      1217       406  TIP3  H1            1.0408807985        8.7975295533      -12.5319788840  CLST         406          1.0000000000
      1218       406  TIP3  H2            1.3099871303        7.8147701025      -11.3993093336  CLST         406          1.0000000000
      1219       407  TIP3  OH2          10.3668285476      -13.3526934794        5.1593151879  CLST         407          1.0000000000
      1220       407  TIP3  H1           10.4900525265      -13.4701957177        4.1986360536  CLST         407          1.0000000000
      1221       407  TIP3  H2           11.1637497988      -12.7074923717        5.2419404406  CLST         407          1.0000000000
      1222       408  TIP3  OH2          -2.9675024667      -11.6352469585        1.9623162334  CLST         408          1.0000000000
      1223       408  TIP3  H1           -2.1666108810      -11.0031800545        1.8215894049  CLST         408          1.0000000000
      1224       408  TIP3  H2           -2.3077326237      -12.3841434115        2.1820188078  CLST         408          1.0000000000
      1225       409  TIP3  OH2           1.0898219338       -9.6604039671        9.6686970927  CLST         409          1.0000000000
      1226       409  TIP3  H1            0.6454217022       -9.5945983076       10.5571261451  CLST         409          1.0000000000
      1227       409  TIP3  H2            1.5879529715      -10.4633925809        9.8167464529  CLST         409          1.0000000000
      1228       410  TIP3  OH2           9.8974601625       -7.1169384533       -5.1768018378  CLST         410          1.0000000000
      1229       410  TIP3  H1            9.1072500731       -6.7934321400       -5.6089990745  CLST         410          1.0000000000
      1230       410  TIP3  H2           10.4720049038       -6.3781520775       -5.2901086806  CLST         410          1.0000000000
      1231       411  TIP3  OH2          -9.8672830382       -2.2611611620       -1.2861924263  CLST         411          1.0000000000
      1232       411  TIP3  H1           -9.0029015961       -1.9431711964       -1.0060879791  CLST         411          1.0000000000
      1233       411  TIP3  H2           -9.6000520645       -2.6621867764       -2.1738879016  CLST         411          1.0000000000
      1234       412  TIP3  OH2           6.7914105079      -10.4946708998      -11.8933623926  CLST         412          1.0000000000
      1235       412  TIP3  H1            6.2507646739      -10.8390449510      -11.1772106343  CLST         412          1.0000000000
      1236       412  TIP3  H2            7.5238838023      -11.1401934955      -11.8912118932  CLST         412          1.0000000000
      1237       413  TIP3  OH2           6.9437524062       13.0096846825        0.3058519755  CLST         413          1.0000000000
      1238       413  TIP3  H1            7.5761462141       12.4595604456       -0.2760675962  CLST         413          1.0000000000
      1239       413  TIP3  H2            7.6882343223       13.5374673008        0.8534658105  CLST         413          1.0000000000
      1240       414  TIP3  OH2           1.4242928901       -2.4458562333      -12.3315262951  CLST         414          1.0000000000
      1241       414  TIP3  H1            0.5993289406       -1.9218597656      -12.2100020971  CLST         414          1.0000000000
      1242       414  TIP3  H2            1.4198732627       -2.7326277283      -13.2487850229  CLST         414          1.0000000000
      1243       415  TIP3  OH2           4.0876606684        5.3058224624       -8.3722361466  CLST         415          1.0000000000
      1244       415  TIP3  H1            3.6311213969        4.3796592520       -8.2189188861  CLST         415          1.0000000000
      1245       415  TIP3  H2            4.7388606529        4.9154740339       -9.0231256355  CLST         415          1.0000000000
      1246       416  TIP3  OH2           5.5344121054       12.5280790548       -7.7564396571  CLST         416          1.0000000000
      1247       416  TIP3  H1            5.1274532851       13.0734380273       -8.4219699821  CLST         416          1.0000000000
      1248       416  TIP3  H2            6.3160763104       12.3000696616       -8.3160416426  CLST         416          1.0000000000
      1249       417  TIP3  OH2          12.6439941358      -11.0279125941        2.7682011678  CLST         417          1.0000000000
      1250       417  TIP3  H1           12.1048379204      -11.7413666023        2.3543480370  CLST         417          1.0000000000
      1251       417  TIP3  H2           12.4425220970      -10.2646711100        2.1799157829  CLST         417          1.0000000000
      1252       418  TIP3  OH2          -9.0201313754       -1.6240857118        8.2656231065  CLST         418          1.0000000000
      1253       418  TIP3  H1           -8.6318687400       -1.1563329141        7.4827377721  CLST         418          1.0000000000
      1254       418  TIP3  H2           -9.0149606225       -0.7928780855        8.8013876688  CLST         418          1.0000000000
      1255       419  TIP3  OH2          14.5225638732        0.4030027902       -6.1658258112  CLST         419          1.0000000000
      1256       419  TIP3  H1           14.5209748164        1.3076653591       -4.6028955822  CLST         419          1.0000000000
      1257       419  TIP3  H2           15.3412264502        0.4606076840       -6.4784916793  CLST         419          1.0000000000
      1258       420  TIP3  OH2          -8.0968743819       -8.1528496386        3.4454759424  CLST         420          1.0000000000
      1259       420  TIP3  H1           -8.9475518618       -7.9463003048        2.9077967989  CLST         420          1.0000000000
      1260       420  TIP3  H2           -8.3226979350       -9.0936317200        3.7105024935  CLST         420          1.0000000000
      1261       421  TIP3  OH2           3.5338503173       -6.4424418190      -13.2690039787  CLST         421          1.0000000000
      1262       421  TIP3  H1            4.4660474249       -6.6923946517      -13.1264063808  CLST         421          1.0000000000
      1263       421  TIP3  H2            3.1586356434       -7.3846252646      -13.2607310263  CLST         421          1.0000000000
      1264       422  TIP3  OH2          -1.9015798858       -9.3277642994       -1.7459115989  CLST         422          1.0000000000
      1265       422  TIP3  H1           -1.3649930485      -10.0006218974       -1.3106962146  CLST         422          1.0000000000
      1266       422  TIP3  H2           -2.5990020648      -10.0044020084       -1.9178414708  CLST         422          1.0000000000
      1267       423  TIP3  OH2           1.7317369513        4.9638882776       -4.0303895417  CLST         423          1.0000000000
      1268       423  TIP3  H1            2.4783121120        5.3898616561       -4.5136529035  CLST         423          1.0000000000
      1269       423  TIP3  H2            2.1128597659        4.9774729568       -3.1218242691  CLST         423          1.0000000000
      1270       424  TIP3  OH2          -8.9865948330        4.3809040873        4.3576893947  CLST         424          1.0000000000
      1271       424  TIP3  H1           -8.8570597548        3.7654253166        3.6031926405  CLST         424          1.0000000000
      1272       424  TIP3  H2           -8.7557781116        5.2318085806        3.9424018570  CLST         424          1.0000000000
      1273       425  TIP3  OH2           8.2071269684      -12.6121017816        8.3910676901  CLST         425          1.0000000000
      1274       425  TIP3  H1            8.2941315349      -12.1178116194        7.5209150423  CLST         425          1.0000000000
      1275       425  TIP3  H2            7.8098998721      -11.9172072019        8.8842829959  CLST         425          1.0000000000
      1276       426  TIP3  OH2           8.2188257086        2.3611373999        8.2324565773  CLST         426          1.0000000000
      1277       426  TIP3  H1            8.8654669547        2.5088896024        8.9597847401  CLST         426          1.0000000000
      1278       426  TIP3  H2            8.3778500616        3.2656575021        7.8214877694  CLST         426          1.0000000000
      1279       427  TIP3  OH2          11.4693229808        7.4669691056       10.8761859043  CLST         427          1.0000000000
      1280       427  TIP3  H1           11.5766864819        8.0018048898       11.6840813052  CLST         427          1.0000000000
      1281       427  TIP3  H2           10.5488721910        7.0307951099       10.8657270170  CLST         427          1.0000000000
      1282       428  TIP3  OH2          12.5224962881        7.6446560696        1.0513632355  CLST         428          1.0000000000
      1283       428  TIP3  H1           12.3411627884        8.0294650383        0.1328713347  CLST         428          1.0000000000
      1284       428  TIP3  H2           13.4309559379        7.4442791329        0.9997726531  CLST         428          1.0000000000
      1285       429  TIP3  OH2          11.8423565654       -9.9611062079       -0.7757561998  CLST         429          1.0000000000
      1286       429  TIP3  H1           12.0926726709       -9.3984665689        0.1013890930  CLST         429          1.0000000000
      1287       429  TIP3  H2           11.3643644487       -9.2239482732       -1.3346550991  CLST         429          1.0000000000
      1288       430  TIP3  OH2           9.8229766012       -6.7136298008        3.4614882647  CLST         430          1.0000000000
      1289       430  TIP3  H1            9.7590220091       -7.2462013253        2.6209978691  CLST         430          1.0000000000
      1290       430  TIP3  H2           10.7864607930       -6.7772687255        3.4500633942  CLST         430          1.0000000000
      1291       431  TIP3  OH2         -12.7230311169        9.3712504708       -2.4192806332  CLST         431          1.0000000000
      1292       431  TIP3  H1          -14.0477711006        9.6934721279       -2.8486123215  CLST         431          1.0000000000
      1293       431  TIP3  H2          -13.6957981839        9.6078436510       -1.8851069956  CLST         431          1.0000000000
      1294       432  TIP3  OH2           5.4534072878        8.4336198054      -10.1376421962  CLST         432          1.0000000000
      1295       432  TIP3  H1            5.8247604143        8.7415205619       -9.2579629861  CLST         432          1.0000000000
      1296       432  TIP3  H2            4.8036662475        9.2008667011      -10.1150695112  CLST         432          1.0000000000
      1297       433  TIP3  OH2          -0.7983256046        8.2110417214        7.8216121998  CLST         433          1.0000000000
      1298       433  TIP3  H1           -1.6518384531        8.6895506159        7.9755238864  CLST         433          1.0000000000
      1299       433  TIP3  H2           -1.0785317159        7.4208198376        7.3196860110  CLST         433          1.0000000000
      1300       434  TIP3  OH2          -7.2980310048        0.8060033237        3.8875157977  CLST         434          1.0000000000
      1301       434  TIP3  H1           -7.6132109214        1.4810106608        3.2627770714  CLST         434          1.0000000000
      1302       434  TIP3  H2           -7.9379303824        0.0639100684        3.5960788481  CLST         434          1.0000000000
      1303       435  TIP3  OH2           9.8966494658       -0.3422761561       -7.1065995527  CLST         435          1.0000000000
      1304       435  TIP3  H1            9.5842215062       -0.5479335245       -6.2377808651  CLST         435          1.0000000000
      1305       435  TIP3  H2           10.4546743255        0.4368498334       -7.0465239975  CLST         435          1.0000000000
      1306       436  TIP3  OH2           3.7469820800       10.5695747586       -9.1182372211  CLST         436          1.0000000000
      1307       436  TIP3  H1            3.7939463768       11.2204824620       -8.4134969181  CLST         436          1.0000000000
      1308       436  TIP3  H2            2.8692466024       10.2346209367       -8.8784275625  CLST         436          1.0000000000
      1309       437  TIP3  OH2          -8.4196662107       -0.8387241084       -7.9139962715  CLST         437          1.0000000000
      1310       437  TIP3  H1           -8.6407329814       -0.4379272002       -8.7748964358  CLST         437          1.0000000000
      1311       437  TIP3  H2           -7.4203948836       -0.6323714029       -7.9959497304  CLST         437          1.0000000000
      1312       438  TIP3  OH2          -3.3502793785        5.3479947228       -8.1476858929  CLST         438          1.0000000000
      1313       438  TIP3  H1           -4.0840367303        5.9365884585       -7.8298137975  CLST         438          1.0000000000
      1314       438  TIP3  H2           -3.6331098665        5.4823379888       -9.1320303488  CLST         438          1.0000000000
      1315       439  TIP3  OH2          14.1431166542        1.5816545893       -3.8930878765  CLST         439          1.0000000000
      1316       439  TIP3  H1           13.6182667103        2.4609870793       -4.0124980003  CLST         439          1.0000000000
      1317       439  TIP3  H2           13.4748857010        1.1989987174       -3.1859618478  CLST         439          1.0000000000
      1318       440  TIP3  OH2           1.0554021366      -12.8613023453      -11.1158226808  CLST         440          1.0000000000
      1319       440  TIP3  H1            0.0695595049      -12.5561294873      -10.9908293956  CLST         440          1.0000000000
      1320       440  TIP3  H2            1.0562487564      -13.3803044386      -11.8450621542  CLST         440          1.0000000000
      1321       441  TIP3  OH2          -1.4042406731       -4.2182980953        3.1563806911  CLST         441          1.0000000000
      1322       441  TIP3  H1           -1.8347679367       -3.4688099075        3.4278807725  CLST         441          1.0000000000
      1323       441  TIP3  H2           -1.0690417019       -4.6014918071        4.0155768202  CLST         441          1.0000000000
      1324       442  TIP3  OH2           3.2140576117       -9.8182810570       -7.9308589323  CLST         442          1.0000000000
      1325       442  TIP3  H1            3.5781510789      -10.3454865068       -8.6855249209  CLST         442          1.0000000000
      1326       442  TIP3  H2            2.3923160657       -9.4945996272       -8.3838372912  CLST         442          1.0000000000
      1327       443  TIP3  OH2           1.3240499195       10.3845624614      -13.1429336723  CLST         443          1.0000000000
      1328       443  TIP3  H1            1.6005522501       11.0631605853      -12.3847551386  CLST         443          1.0000000000
      1329       443  TIP3  H2            2.0023314354       10.5698217454      -13.7532934906  CLST         443          1.0000000000
      1330       444  TIP3  OH2          -7.9514439683        1.3332759694       -1.7477309965  CLST         444          1.0000000000
      1331       444  TIP3  H1           -7.9620000897        1.8862996138       -2.5887912359  CLST         444          1.0000000000
      1332       444  TIP3  H2           -7.5072834398        1.9891252288       -1.1522534372  CLST         444          1.0000000000
      1333       445  TIP3  OH2         -11.4784329623       -5.3433531955        6.1732303629  CLST         445          1.0000000000
      1334       445  TIP3  H1          -11.0584672183       -4.5463339694        5.7957949387  CLST         445          1.0000000000
      1335       445  TIP3  H2          -11.5587955384       -5.0863501915        7.1176531734  CLST         445          1.0000000000
      1336       446  TIP3  OH2          -2.9454437546        4.6085068878       -5.2356776627  CLST         446          1.0000000000
      1337       446  TIP3  H1           -3.2795003465        4.7551987117       -6.1461512886  CLST         446          1.0000000000
      1338       446  TIP3  H2           -2.0704153967        5.0767410807       -5.3596433912  CLST         446          1.0000000000
      1339       447  TIP3  OH2          -4.9984885647      -12.7726448261       -4.0134363898  CLST         447          1.0000000000
      1340       447  TIP3  H1           -5.5757495258      -13.3279883336       -3.5147552674  CLST         447          1.0000000000
      1341       447  TIP3  H2           -4.6038698612      -12.2667909102       -3.2672456762  CLST         447          1.0000000000
      1342       448  TIP3  OH2           7.1329867583        9.5437090176        4.8211400084  CLST         448          1.0000000000
      1343       448  TIP3  H1            7.4676687236        9.6681521847        5.7451911217  CLST         448          1.0000000000
      1344       448  TIP3  H2            6.3280797890       10.1655955866        4.8800486523  CLST         448          1.0000000000
      1345       449  TIP3  OH2           4.1827245472        5.2215792065        8.4542578132  CLST         449          1.0000000000
      1346       449  TIP3  H1            4.8047946958        4.6356551052        8.9841969978  CLST         449          1.0000000000
      1347       449  TIP3  H2            3.9528643742        4.6788398034        7.7017816005  CLST         449          1.0000000000
      1348       450  TIP3  OH2          -4.0438830158        0.3180729258       -1.9966177145  CLST         450          1.0000000000
      1349       450  TIP3  H1           -3.6316814069        1.0738106717       -2.4802650354  CLST         450          1.0000000000
      1350       450  TIP3  H2           -3.2535064917       -0.1834937256       -1.7661992621  CLST         450          1.0000000000
      1351       451  TIP3  OH2          13.6991519706       -2.0809205590       -5.8395943691  CLST         451          1.0000000000
      1352       451  TIP3  H1           14.5312145528       -2.4479969614       -5.8323219509  CLST         451          1.0000000000
      1353       451  TIP3  H2           14.0345319002       -1.0602568072       -6.0240402515  CLST         451          1.0000000000
      1354       452  TIP3  OH2           8.2976827741        4.9156457832        7.9211790030  CLST         452          1.0000000000
      1355       452  TIP3  H1            7.5873481610        5.5772391982        8.0128178056  CLST         452          1.0000000000
      1356       452  TIP3  H2            8.9828716493        5.5098681633        7.4714941575  CLST         452          1.0000000000
      1357       453  TIP3  OH2           6.9539617363        2.7523224456       -6.0673927767  CLST         453          1.0000000000
      1358       453  TIP3  H1            6.1371716552        2.2979355188       -5.7421242065  CLST         453          1.0000000000
      1359       453  TIP3  H2            6.5045762158        3.1432485905       -6.8422191802  CLST         453          1.0000000000
      1360       454  TIP3  OH2           1.0917044461        5.4590223836        2.0290556848  CLST         454          1.0000000000
      1361       454  TIP3  H1            0.2642009643        5.1472663882        1.5590609005  CLST         454          1.0000000000
      1362       454  TIP3  H2            0.7409644672        6.1638828420        2.6153338785  CLST         454          1.0000000000
      1363       455  TIP3  OH2          -1.1803586909        0.8417027488      -10.3579779153  CLST         455          1.0000000000
      1364       455  TIP3  H1           -1.1099135920        1.0993207436       -9.3875043036  CLST         455          1.0000000000
      1365       455  TIP3  H2           -1.1121542542        1.7707078904      -10.7008062158  CLST         455          1.0000000000
      1366       456  TIP3  OH2           5.1994143800       11.3854317022        5.0819410265  CLST         456          1.0000000000
      1367       456  TIP3  H1            4.6768218622       11.8405086057        4.4213411222  CLST         456          1.0000000000
      1368       456  TIP3  H2            4.5437618476       11.0549848140        5.7595646503  CLST         456          1.0000000000
      1369       457  TIP3  OH2          -4.8250012173       -7.6135411408        4.8015492930  CLST         457          1.0000000000
      1370       457  TIP3  H1           -5.6331427746       -7.4709839451        5.3158920696  CLST         457          1.0000000000
      1371       457  TIP3  H2           -5.1612026663       -7.3030942154        3.8886971699  CLST         457          1.0000000000
      1372       458  TIP3  OH2           7.9128984308       -6.4453189836      -11.2987663419  CLST         458          1.0000000000
      1373       458  TIP3  H1            8.8916036841       -6.2376280938      -11.4546054379  CLST         458          1.0000000000
      1374       458  TIP3  H2            7.7132543647       -5.6117001975      -10.8367960420  CLST         458          1.0000000000
      1375       459  TIP3  OH2           6.4563110491       -9.8413152309       -7.9005081999  CLST         459          1.0000000000
      1376       459  TIP3  H1            5.9191628625       -9.0339579799       -7.6752410899  CLST         459          1.0000000000
      1377       459  TIP3  H2            7.2659665270       -9.4266649301       -8.2907944330  CLST         459          1.0000000000
      1378       460  TIP3  OH2           9.1936590520       -2.0320725005       -2.7543783793  CLST         460          1.0000000000
      1379       460  TIP3  H1            9.6236529072       -2.6913652318       -2.2250069112  CLST         460          1.0000000000
      1380       460  TIP3  H2            9.9225669870       -1.7477925043       -3.3961694828  CLST         460          1.0000000000
      1381       461  TIP3  OH2          -1.3823333725      -12.7763655751       -5.3152679924  CLST         461          1.0000000000
      1382       461  TIP3  H1           -0.6773865821      -13.1482756496       -5.8652524221  CLST         461          1.0000000000
      1383       461  TIP3  H2           -0.9926387666      -13.1099017770       -4.4402900213  CLST         461          1.0000000000
      1384       462  TIP3  OH2          -0.0078733523        5.4954247991      -12.7948939206  CLST         462          1.0000000000
      1385       462  TIP3  H1            0.0899490553        6.5039621623      -12.6447656028  CLST         462          1.0000000000
      1386       462  TIP3  H2            0.9411700170        5.5019289007      -12.8832902753  CLST         462          1.0000000000
      1387       463  TIP3  OH2          -1.7779188036        1.7915503068       -7.8332937197  CLST         463          1.0000000000
      1388       463  TIP3  H1           -1.4930346836        1.0755605700       -7.2173176490  CLST         463          1.0000000000
      1389       463  TIP3  H2           -2.7318727109        1.8133165100       -7.5207125866  CLST         463          1.0000000000
      1390       464  TIP3  OH2          -6.5077086737        6.1380605261        4.3198898706  CLST         464          1.0000000000
      1391       464  TIP3  H1           -6.2805537598        5.4327985708        4.9203404468  CLST         464          1.0000000000
      1392       464  TIP3  H2           -6.7502469249        6.9157581326        4.8423272986  CLST         464          1.0000000000
      1393       465  TIP3  OH2          -4.5408587489      -12.6791760834        6.3348915079  CLST         465          1.0000000000
      1394       465  TIP3  H1           -3.6524976432      -13.0966711588        6.2428870052  CLST         465          1.0000000000
      1395       465  TIP3  H2           -4.2139674114      -11.7968444210        6.1125902939  CLST         465          1.0000000000
      1396       466  TIP3  OH2          -2.3868752104        9.1936459814       -4.3233652601  CLST         466          1.0000000000
      1397       466  TIP3  H1           -3.0554562989        9.2703936378       -5.0425450650  CLST         466          1.0000000000
      1398       466  TIP3  H2           -2.6823629006        9.8163371849       -3.6551729545  CLST         466          1.0000000000
      1399       467  TIP3  OH2           8.3613215884        5.8989086456        4.6692568472  CLST         467          1.0000000000
      1400       467  TIP3  H1            8.7748958213        6.4825048868        5.3827910357  CLST         467          1.0000000000
      1401       467  TIP3  H2            8.3479177595        6.5794639912        3.9553585768  CLST         467          1.0000000000
      1402       468  TIP3  OH2          -0.5151689877      -12.4107999348       10.4807509896  CLST         468          1.0000000000
      1403       468  TIP3  H1           -0.9742001816      -12.1879589803       11.2851594763  CLST         468          1.0000000000
      1404       468  TIP3  H2            0.3686103133      -12.5876850704       10.8311532896  CLST         468          1.0000000000
      1405       469  TIP3  OH2           5.4177533346        8.4109874142       14.2126360301  CLST         469          1.0000000000
      1406       469  TIP3  H1            6.0988199785        8.4662766535       13.4829064956  CLST         469          1.0000000000
      1407       469  TIP3  H2            4.8277189730        9.0651724378       13.9114151832  CLST         469          1.0000000000
      1408       470  TIP3  OH2         -11.1202754231       12.9007987352        0.6433120530  CLST         470          1.0000000000
      1409       470  TIP3  H1          -10.9251452866       12.6765856491       -0.2945565174  CLST         470          1.0000000000
      1410       470  TIP3  H2          -11.6894980299       12.1299953363        0.8964372043  CLST         470          1.0000000000
      1411       471  TIP3  OH2          -4.3385245739        9.6864833725       -9.0976720136  CLST         471          1.0000000000
      1412       471  TIP3  H1           -4.1856269110        8.7355399631       -9.3139340618  CLST         471          1.0000000000
      1413       471  TIP3  H2           -4.5842153051       10.0326534431      -10.0116914632  CLST         471          1.0000000000
      1414       472  TIP3  OH2         -11.9863793697        3.9795892814        2.8069473476  CLST         472          1.0000000000
      1415       472  TIP3  H1          -12.4926774021        3.1118764086        2.8862530734  CLST         472          1.0000000000
      1416       472  TIP3  H2          -11.3486400972        3.6221735556        2.1373959271  CLST         472          1.0000000000
      1417       473  TIP3  OH2           5.3028635676        0.8859649506       10.1617145006  CLST         473          1.0000000000
      1418       473  TIP3  H1            5.9050724591        1.6442898706        9.9326370787  CLST         473          1.0000000000
      1419       473  TIP3  H2            4.7144997234        1.4582956271       10.6814273441  CLST         473          1.0000000000
      1420       474  TIP3  OH2           1.2571675339        1.7054995862        1.5154260196  CLST         474          1.0000000000
      1421       474  TIP3  H1            0.3248434401        1.6314784453        1.3388750555  CLST         474          1.0000000000
      1422       474  TIP3  H2            1.6519802458        1.4108994508        0.6259456196  CLST         474          1.0000000000
      1423       475  TIP3  OH2           6.0900276027       -8.7369228683       11.9942530106  CLST         475          1.0000000000
      1424       475  TIP3  H1            6.9362169893       -8.3606166696       12.3104088743  CLST         475          1.0000000000
      1425       475  TIP3  H2            6.2894612691       -9.3783943282       11.2974785346  CLST         475          1.0000000000
      1426       476  TIP3  OH2         -11.4792624330       -9.0559930333       -0.2137963608  CLST         476          1.0000000000
      1427       476  TIP3  H1          -11.8746563342       -8.1907886773       -0.4891559352  CLST         476          1.0000000000
      1428       476  TIP3  H2          -10.8037699531       -8.9677062244       -0.9246748295  CLST         476          1.0000000000
      1429       477  TIP3  OH2         -12.5021367502        3.5558497676      -13.4951028564  CLST         477          1.0000000000
      1430       477  TIP3  H1          -12.6861375469        2.6325146941      -13.4528780510  CLST         477          1.0000000000
      1431       477  TIP3  H2          -11.8896296887        3.4512966183      -14.2976141135  CLST         477          1.0000000000
      1432       478  TIP3  OH2          -3.8681077906        6.5538730362      -10.7566979941  CLST         478          1.0000000000
      1433       478  TIP3  H1           -4.3119993490        6.1033463294      -11.4825500266  CLST         478          1.0000000000
      1434       478  TIP3  H2           -3.2429110339        7.1999484368      -11.2283059922  CLST         478          1.0000000000
      1435       479  TIP3  OH2           7.8333379209       -1.5776276611       -8.6289357882  CLST         479          1.0000000000
      1436       479  TIP3  H1            8.5581880025       -0.9531964583       -8.3859545391  CLST         479          1.0000000000
      1437       479  TIP3  H2            7.2769887850       -1.4663818774       -7.7925081336  CLST         479          1.0000000000
      1438       480  TIP3  OH2          -5.9699938311        7.5544634632        0.0080621751  CLST         480          1.0000000000
      1439       480  TIP3  H1           -5.0775072341        7.9625861778       -0.1582127563  CLST         480          1.0000000000
      1440       480  TIP3  H2           -5.6491196618        6.6233006373        0.1199219668  CLST         480          1.0000000000
      1441       481  TIP3  OH2          -3.1277002668        2.3372912696       11.8449326971  CLST         481          1.0000000000
      1442       481  TIP3  H1           -2.1351064971        2.5008822560       11.6603316147  CLST         481          1.0000000000
      1443       481  TIP3  H2           -3.0565138251        1.8145705212       12.6285094352  CLST         481          1.0000000000
      1444       482  TIP3  OH2          -7.8780091382       11.6072669399       -7.4725295422  CLST         482          1.0000000000
      1445       482  TIP3  H1           -8.5365693993       11.5091130265       -8.1956226622  CLST         482          1.0000000000
      1446       482  TIP3  H2           -7.1549501816       12.0526330506       -8.0065941448  CLST         482          1.0000000000
      1447       483  TIP3  OH2           6.2642994469       -5.9260316688       12.7171973463  CLST         483          1.0000000000
      1448       483  TIP3  H1            5.4712696031       -6.4537184458       12.5956477211  CLST         483          1.0000000000
      1449       483  TIP3  H2            6.4134295591       -5.6146307073       11.8015620238  CLST         483          1.0000000000
      1450       484  TIP3  OH2           6.8439957825       -3.0737732484        3.0546325282  CLST         484          1.0000000000
      1451       484  TIP3  H1            5.8181809611       -3.1915487570        2.9136060195  CLST         484          1.0000000000
      1452       484  TIP3  H2            6.7411558433       -2.3395251425        3.6873988798  CLST         484          1.0000000000
      1453       485  TIP3  OH2         -11.6271262913        4.6530012724        9.9458239775  CLST         485          1.0000000000
      1454       485  TIP3  H1          -11.2658881825        3.7952269198       10.1314189980  CLST         485          1.0000000000
      1455       485  TIP3  H2          -12.3412876401        4.3523439778        9.2740748536  CLST         485          1.0000000000
      1456       486  TIP3  OH2           8.3331528703       -7.2028418936       13.6866837202  CLST         486          1.0000000000
      1457       486  TIP3  H1            8.5798306231       -7.2209926855       14.5666935597  CLST         486          1.0000000000
      1458       486  TIP3  H2            7.5795661187       -6.5352702892       13.5562213641  CLST         486          1.0000000000
      1459       487  TIP3  OH2          12.3858403901       -8.4307597936        6.1654292769  CLST         487          1.0000000000
      1460       487  TIP3  H1           11.3897858849       -8.2700237184        6.2701617552  CLST         487          1.0000000000
      1461       487  TIP3  H2           12.5010060154       -8.5795348568        7.1507706063  CLST         487          1.0000000000
      1462       488  TIP3  OH2          14.8276115848        8.5492683149        7.6041067479  CLST         488          1.0000000000
      1463       488  TIP3  H1           14.9986766304        7.3574842735        7.8988307703  CLST         488          1.0000000000
      1464       488  TIP3  H2           13.6072744922        7.6915399092        8.1822134395  CLST         488          1.0000000000
      1465       489  TIP3  OH2          -6.2827462968      -10.8475494119       11.8241427077  CLST         489          1.0000000000
      1466       489  TIP3  H1           -6.5207504709       -9.9538271339       11.5491013791  CLST         489          1.0000000000
      1467       489  TIP3  H2           -6.9907818980      -11.2895425065       11.2073629645  CLST         489          1.0000000000
      1468       490  TIP3  OH2           6.7704120557      -13.0394511534        2.3414264636  CLST         490          1.0000000000
      1469       490  TIP3  H1            6.6066339143      -12.1136616348        2.7130659732  CLST         490          1.0000000000
      1470       490  TIP3  H2            7.3686633486      -13.4587307757        2.9867626379  CLST         490          1.0000000000
      1471       491  TIP3  OH2           2.9998775303       -9.3940521317        4.9998845890  CLST         491          1.0000000000
      1472       491  TIP3  H1            2.0172368891       -9.4108582504        4.9966686003  CLST         491          1.0000000000
      1473       491  TIP3  H2            3.2232284013      -10.0054962524        4.3005786765  CLST         491          1.0000000000
      1474       492  TIP3  OH2          -0.6421081308       -6.6609535067       12.2733768996  CLST         492          1.0000000000
      1475       492  TIP3  H1           -0.9210093291       -7.9517167666       12.0763272234  CLST         492          1.0000000000
      1476       492  TIP3  H2           -1.5669486301       -6.0443133492       11.8502731552  CLST         492          1.0000000000
      1477       493  TIP3  OH2           3.4953714391       10.6784533073        7.2757056055  CLST         493          1.0000000000
      1478       493  TIP3  H1            4.2536535319       10.8736370292        7.9197386184  CLST         493          1.0000000000
      1479       493  TIP3  H2            2.8349215479       10.2658710555        7.8300161098  CLST         493          1.0000000000
      1480       494  TIP3  OH2          -9.1633044687        5.4226493392       -0.6535488192  CLST         494          1.0000000000
      1481       494  TIP3  H1           -9.4656980230        5.8588434889       -1.4830713111  CLST         494          1.0000000000
      1482       494  TIP3  H2           -9.7833667410        5.8256297314        0.0449770918  CLST         494          1.0000000000
      1483       495  TIP3  OH2           5.1688425171       -6.8891821283       -1.9484732087  CLST         495          1.0000000000
      1484       495  TIP3  H1            5.4793103829       -6.3603569031       -2.7021773155  CLST         495          1.0000000000
      1485       495  TIP3  H2            6.0193818078       -7.3382045678       -1.6570930193  CLST         495          1.0000000000
      1486       496  TIP3  OH2         -12.8368293722      -10.8225529679        7.5130533420  CLST         496          1.0000000000
      1487       496  TIP3  H1          -13.1715529802      -11.4135728479        8.1581114696  CLST         496          1.0000000000
      1488       496  TIP3  H2          -12.7458641863      -11.4977336313        6.8706537511  CLST         496          1.0000000000
      1489       497  TIP3  OH2          -9.7009914931      -13.5245367928       -7.2495930946  CLST         497          1.0000000000
      1490       497  TIP3  H1          -10.3142499005      -14.1706152252       -7.1945750842  CLST         497          1.0000000000
      1491       497  TIP3  H2          -10.1985189938      -12.9234928895       -7.7814148756  CLST         497          1.0000000000
      1492       498  TIP3  OH2          -5.6422869976        0.4127924046      -11.1994150368  CLST         498          1.0000000000
      1493       498  TIP3  H1           -5.9878324056        0.2421892840      -12.0899162715  CLST         498          1.0000000000
      1494       498  TIP3  H2           -5.4476298310        1.3514168671      -11.1089369063  CLST         498          1.0000000000
      1495       499  TIP3  OH2          11.4666305509        6.6337681165        3.5650221750  CLST         499          1.0000000000
      1496       499  TIP3  H1           12.1780339223        7.0276582663        3.0936113902  CLST         499          1.0000000000
      1497       499  TIP3  H2           11.0236357721        7.4320017260        3.8957568425  CLST         499          1.0000000000
      1498       500  TIP3  OH2           2.4667404692       -8.7829162904      -13.3049688955  CLST         500          1.0000000000
      1499       500  TIP3  H1            1.9852303265       -8.7675667262      -14.0455069669  CLST         500          1.0000000000
      1500       500  TIP3  H2            2.5322674766       -9.6496150297      -12.7513157524  CLST         500          1.0000000000
      1501       501  TIP3  OH2           1.4739425793      -11.0893512849       13.9564195918  CLST         501          1.0000000000
      1502       501  TIP3  H1            1.4997876786      -11.7075828865       14.5808990616  CLST         501          1.0000000000
      1503       501  TIP3  H2            2.3317685841      -10.6342963906       13.9582047646  CLST         501          1.0000000000
      1504       502  TIP3  OH2           6.1222601844        3.7142856461        9.8606772314  CLST         502          1.0000000000
      1505       502  TIP3  H1            6.4261295267        4.1885964793       10.6704753919  CLST         502          1.0000000000
      1506       502  TIP3  H2            6.9789907468        3.5664411006        9.4452814339  CLST         502          1.0000000000
      1507       503  TIP3  OH2          10.2819790511       -0.7759181170        0.2881008733  CLST         503          1.0000000000
      1508       503  TIP3  H1           11.1961175362       -0.5829002881        0.5638702857  CLST         503          1.0000000000
      1509       503  TIP3  H2           10.0619815013       -0.2209099683       -0.4690003479  CLST         503          1.0000000000
      1510       504  TIP3  OH2           8.3081997623      -13.7265749245       10.7766376065  CLST         504          1.0000000000
      1511       504  TIP3  H1            8.0787163697      -13.5652513783        9.8332402210  CLST         504          1.0000000000
      1512       504  TIP3  H2            8.4364872358      -14.6496851317       10.8266051445  CLST         504          1.0000000000
      1513       505  TIP3  OH2           3.6374521951      -10.9482078413       -5.6318821353  CLST         505          1.0000000000
      1514       505  TIP3  H1            3.4140652465      -10.4065366373       -6.4803282175  CLST         505          1.0000000000
      1515       505  TIP3  H2            3.1835741876      -10.5634305519       -4.8899592443  CLST         505          1.0000000000
      1516       506  TIP3  OH2          -9.1124948736       -3.4550998304       -8.0473156739  CLST         506          1.0000000000
      1517       506  TIP3  H1           -8.8187890899       -2.5238429474       -7.8489933381  CLST         506          1.0000000000
      1518       506  TIP3  H2           -9.6420800283       -3.2146756710       -8.8372552786  CLST         506          1.0000000000
      1519       507  TIP3  OH2          11.1761457073        9.7722571643      -12.9029520773  CLST         507          1.0000000000
      1520       507  TIP3  H1           11.7159859748        9.8515715567      -13.5810601866  CLST         507          1.0000000000
      1521       507  TIP3  H2           11.0958838806        8.7963347032      -12.6667029345  CLST         507          1.0000000000
      1522       508  TIP3  OH2           9.1612700981       12.2772833244        8.8390625627  CLST         508          1.0000000000
      1523       508  TIP3  H1            8.7281232752       11.9160373723        8.0564689346  CLST         508          1.0000000000
      1524       508  TIP3  H2           10.0126293434       12.5820160374        8.4521110825  CLST         508          1.0000000000
      1525       509  TIP3  OH2          -0.7915398688       -1.5121599794      -11.3817176057  CLST         509          1.0000000000
      1526       509  TIP3  H1           -1.7831335464       -1.6983496633      -11.3499406610  CLST         509          1.0000000000
      1527       509  TIP3  H2           -0.9690671930       -0.5627986002      -10.9691688246  CLST         509          1.0000000000
      1528       510  TIP3  OH2           8.1978327086        2.2515837610       11.5980200715  CLST         510          1.0000000000
      1529       510  TIP3  H1            8.1399689455        1.2407093429       11.5466488287  CLST         510          1.0000000000
      1530       510  TIP3  H2            8.9797211127        2.3598905395       11.0601192096  CLST         510          1.0000000000
      1531       511  TIP3  OH2          -8.7615723446       -5.9826323594       -0.8962497825  CLST         511          1.0000000000
      1532       511  TIP3  H1           -9.7284678872       -6.0296382047       -1.0897964967  CLST         511          1.0000000000
      1533       511  TIP3  H2           -8.5295752990       -5.2796553838       -1.5283362341  CLST         511          1.0000000000
      1534       512  TIP3  OH2           9.9536323249        7.0097450711        6.9749489155  CLST         512          1.0000000000
      1535       512  TIP3  H1           10.3692599319        7.6286640279        7.6386064193  CLST         512          1.0000000000
      1536       512  TIP3  H2           10.1578869434        7.5994483412        6.1979302961  CLST         512          1.0000000000
      1537       513  TIP3  OH2         -11.9246036047       10.3991844912        9.2720138373  CLST         513          1.0000000000
      1538       513  TIP3  H1          -11.3234504112       11.1766059097        9.5047128138  CLST         513          1.0000000000
      1539       513  TIP3  H2          -11.9016076087        9.9389841499       10.1136034253  CLST         513          1.0000000000
      1540       514  TIP3  OH2          -4.8953971867        5.1401964217        0.3288544732  CLST         514          1.0000000000
      1541       514  TIP3  H1           -4.1448885219        5.5655725887        0.8020719108  CLST         514          1.0000000000
      1542       514  TIP3  H2           -4.4476219511        5.1484946200       -0.5793883723  CLST         514          1.0000000000
      1543       515  TIP3  OH2          -0.7825240154        0.8091593721       -4.3312443288  CLST         515          1.0000000000
      1544       515  TIP3  H1           -1.6320034887        1.2887991897       -4.0850104829  CLST         515          1.0000000000
      1545       515  TIP3  H2           -0.2802659270        1.6245014656       -4.5612235162  CLST         515          1.0000000000
      1546       516  TIP3  OH2          -7.4294369369       -8.5141004938        6.3476781500  CLST         516          1.0000000000
      1547       516  TIP3  H1           -7.7614811698       -8.2197644737        5.4662390194  CLST         516          1.0000000000
      1548       516  TIP3  H2           -7.8348488922       -7.7116047669        6.8396015002  CLST         516          1.0000000000
      1549       517  TIP3  OH2           0.6913876309       11.0429394024       11.5081925026  CLST         517          1.0000000000
      1550       517  TIP3  H1            0.8480525420       11.1276827782       10.5678261676  CLST         517          1.0000000000
      1551       517  TIP3  H2           -0.2983114070       11.1228686673       11.4828249899  CLST         517          1.0000000000
      1552       518  TIP3  OH2         -11.6092285736       -3.4449514795      -11.4024133204  CLST         518          1.0000000000
      1553       518  TIP3  H1          -11.8792908300       -2.7460956364      -11.9940773147  CLST         518          1.0000000000
      1554       518  TIP3  H2          -10.9946010624       -3.8865413395      -12.0134081658  CLST         518          1.0000000000
      1555       519  TIP3  OH2           2.1140976682        3.3730476496        3.3146532138  CLST         519          1.0000000000
      1556       519  TIP3  H1            1.6499526541        4.0915281858        2.7989284733  CLST         519          1.0000000000
      1557       519  TIP3  H2            1.7761397603        2.5902563829        2.7790818152  CLST         519          1.0000000000
      1558       520  TIP3  OH2         -10.3584386313        6.2930495606        8.0791261026  CLST         520          1.0000000000
      1559       520  TIP3  H1          -10.7412674669        5.7292332341        7.2997235327  CLST         520          1.0000000000
      1560       520  TIP3  H2          -10.6530719277        5.6462512540        8.7655712923  CLST         520          1.0000000000
      1561       521  TIP3  OH2           8.3838999499       -8.7486367800       -9.5404044760  CLST         521          1.0000000000
      1562       521  TIP3  H1            8.5099486754       -9.3726359408      -10.2589619202  CLST         521          1.0000000000
      1563       521  TIP3  H2            8.1000523189       -7.9239038058      -10.0179341759  CLST         521          1.0000000000
      1564       522  TIP3  OH2          -5.5869896823       -7.1443966060        8.1544050394  CLST         522          1.0000000000
      1565       522  TIP3  H1           -5.6821457446       -7.8918482820        7.5248697643  CLST         522          1.0000000000
      1566       522  TIP3  H2           -4.6018442251       -7.3254021860        8.4132501562  CLST         522          1.0000000000
      1567       523  TIP3  OH2          -4.0325432753       12.0851105982      -13.5766926395  CLST         523          1.0000000000
      1568       523  TIP3  H1           -3.0262522944       12.0038969729      -13.3582913286  CLST         523          1.0000000000
      1569       523  TIP3  H2           -4.1249482362       12.4362739935      -14.4012481636  CLST         523          1.0000000000
      1570       524  TIP3  OH2           6.8734820892        3.7907654745       -1.8171045618  CLST         524          1.0000000000
      1571       524  TIP3  H1            7.1147507496        3.0281077221       -2.4124437833  CLST         524          1.0000000000
      1572       524  TIP3  H2            5.8809478520        3.8362511566       -1.9185580111  CLST         524          1.0000000000
      1573       525  TIP3  OH2           0.3660351042        6.8836361692       -2.5784878669  CLST         525          1.0000000000
      1574       525  TIP3  H1            0.5608875062        6.2205500647       -3.2735327066  CLST         525          1.0000000000
      1575       525  TIP3  H2            0.2571093556        6.2186924408       -1.8195458992  CLST         525          1.0000000000
      1576       526  TIP3  OH2           6.9324838581       -5.3064310592       -3.7246962540  CLST         526          1.0000000000
      1577       526  TIP3  H1            7.0694547645       -5.4018564397       -4.7034267245  CLST         526          1.0000000000
      1578       526  TIP3  H2            7.7598068804       -5.7182709385       -3.4040932637  CLST         526          1.0000000000
      1579       527  TIP3  OH2           0.3836432793        7.2700119889        3.8886352301  CLST         527          1.0000000000
      1580       527  TIP3  H1            1.0723030423        7.7057265213        4.5158105928  CLST         527          1.0000000000
      1581       527  TIP3  H2           -0.1068936002        8.0762077781        3.6342312295  CLST         527          1.0000000000
      1582       528  TIP3  OH2          -2.8089621712        9.9484788212        8.7885894690  CLST         528          1.0000000000
      1583       528  TIP3  H1           -3.0968379200        9.6860048329        9.6771971558  CLST         528          1.0000000000
      1584       528  TIP3  H2           -3.6619054836        9.8632347486        8.2872322372  CLST         528          1.0000000000
      1585       529  TIP3  OH2          -6.0671691455       12.3258150752       -9.4144799405  CLST         529          1.0000000000
      1586       529  TIP3  H1           -5.1197011716       12.4143680583       -9.3313588666  CLST         529          1.0000000000
      1587       529  TIP3  H2           -6.0094037448       11.6044416299      -10.0966816073  CLST         529          1.0000000000
      1588       530  TIP3  OH2          -4.4656981836       -5.6894960905      -13.1861956819  CLST         530          1.0000000000
      1589       530  TIP3  H1           -4.3111127580       -6.7151998981      -13.1551776968  CLST         530          1.0000000000
      1590       530  TIP3  H2           -3.5422718238       -5.4254546412      -12.9354842016  CLST         530          1.0000000000
      1591       531  TIP3  OH2         -11.6287305882       -0.3285424100       10.3750981111  CLST         531          1.0000000000
      1592       531  TIP3  H1          -12.4331190712       -0.2755555066       10.7215648399  CLST         531          1.0000000000
      1593       531  TIP3  H2          -11.6590922549       -1.1168285380        9.8460434352  CLST         531          1.0000000000
      1594       532  TIP3  OH2         -12.1089949349       -2.9666072754       -8.7894529007  CLST         532          1.0000000000
      1595       532  TIP3  H1          -12.9811724030       -3.2633816696       -8.8886443719  CLST         532          1.0000000000
      1596       532  TIP3  H2          -11.8734102268       -3.0896484524       -9.7751648528  CLST         532          1.0000000000
      1597       533  TIP3  OH2          -2.9884243351       -7.2266339284        8.6907105180  CLST         533          1.0000000000
      1598       533  TIP3  H1           -2.3287891078       -7.8212622887        8.2857650354  CLST         533          1.0000000000
      1599       533  TIP3  H2           -2.4942484331       -6.3883895690        8.3579100007  CLST         533          1.0000000000
      1600       534  TIP3  OH2           0.4579553641      -13.1807063830       -7.5431769478  CLST         534          1.0000000000
      1601       534  TIP3  H1            0.5934422797      -13.6280987797       -8.3900736478  CLST         534          1.0000000000
      1602       534  TIP3  H2            1.4242920983      -13.1255183048       -7.2226254955  CLST         534          1.0000000000
      1603       535  TIP3  OH2           2.9161745315        3.2068591489       -7.5178171328  CLST         535          1.0000000000
      1604       535  TIP3  H1            3.5047356790        2.6391268262       -6.9780887307  CLST         535          1.0000000000
      1605       535  TIP3  H2            2.1542463740        3.1876817674       -6.9404757791  CLST         535          1.0000000000
      1606       536  TIP3  OH2           8.0428085262      -12.6654166837       -3.5685689113  CLST         536          1.0000000000
      1607       536  TIP3  H1            7.3984421186      -12.4380737463       -4.3049087369  CLST         536          1.0000000000
      1608       536  TIP3  H2            8.3813400819      -13.4311740031       -3.9521710054  CLST         536          1.0000000000
      1609       537  TIP3  OH2          11.8204615394       -2.6843962293       -7.6066855986  CLST         537          1.0000000000
      1610       537  TIP3  H1           11.1023972318       -2.0091157363       -7.6114381262  CLST         537          1.0000000000
      1611       537  TIP3  H2           12.3413890655       -2.3691079689       -6.8643376336  CLST         537          1.0000000000
      1612       538  TIP3  OH2          -5.2492382921      -10.7926333672        0.7465091837  CLST         538          1.0000000000
      1613       538  TIP3  H1           -4.4279713874      -11.2070115859        1.1983122092  CLST         538          1.0000000000
      1614       538  TIP3  H2           -4.9296858805       -9.8483874401        0.7820814228  CLST         538          1.0000000000
      1615       539  TIP3  OH2           2.5381364861       -4.9380447324        0.8566819610  CLST         539          1.0000000000
      1616       539  TIP3  H1            1.6526809265       -5.1203226361        1.2279050236  CLST         539          1.0000000000
      1617       539  TIP3  H2            2.3985042738       -5.3778608718        0.0395488399  CLST         539          1.0000000000
      1618       540  TIP3  OH2           3.9016853078       -6.9246419657        4.7910259398  CLST         540          1.0000000000
      1619       540  TIP3  H1            3.6723973649       -7.8963056177        5.0126687532  CLST         540          1.0000000000
      1620       540  TIP3  H2            4.1243803795       -7.0457907388        3.8062742872  CLST         540          1.0000000000
      1621       541  TIP3  OH2          -5.5645707799       10.3554068983        2.1285647944  CLST         541          1.0000000000
      1622       541  TIP3  H1           -6.0469857284       10.4772200224        2.9933422889  CLST         541          1.0000000000
      1623       541  TIP3  H2           -4.8749713047       11.0320669947        2.2476190320  CLST         541          1.0000000000
      1624       542  TIP3  OH2         -10.9940551630       14.5432803731        5.7152916786  CLST         542          1.0000000000
      1625       542  TIP3  H1          -10.9309235334       15.4396522487        5.3747131017  CLST         542          1.0000000000
      1626       542  TIP3  H2          -10.7980318115       14.0371859205        4.8640632511  CLST         542          1.0000000000
      1627       543  TIP3  OH2         -10.5759013163       11.4680585281       -2.5103441317  CLST         543          1.0000000000
      1628       543  TIP3  H1          -11.2468804923       10.7734079143       -2.7345030205  CLST         543          1.0000000000
      1629       543  TIP3  H2          -10.3688755753       12.0220707689       -3.2678654571  CLST         543          1.0000000000
      1630       544  TIP3  OH2          -0.4164630502        5.6663186223       -5.5685914627  CLST         544          1.0000000000
      1631       544  TIP3  H1           -0.3252538908        5.2150681727       -6.4466223660  CLST         544          1.0000000000
      1632       544  TIP3  H2            0.2328564614        5.1828358813       -5.0319022669  CLST         544          1.0000000000
      1633       545  TIP3  OH2          -7.8906809097        2.5213463414      -12.4066546714  CLST         545          1.0000000000
      1634       545  TIP3  H1           -8.0382302941        2.1458149212      -13.2825017837  CLST         545          1.0000000000
      1635       545  TIP3  H2           -8.5533911418        3.2798359315      -12.4143793022  CLST         545          1.0000000000
      1636       546  TIP3  OH2           3.8592828047       11.1450483879       -2.2371248792  CLST         546          1.0000000000
      1637       546  TIP3  H1            3.4430090428       10.2618821434       -2.1354342959  CLST         546          1.0000000000
      1638       546  TIP3  H2            4.4969651664       11.0327711751       -1.4370621097  CLST         546          1.0000000000
      1639       547  TIP3  OH2          -3.4520317536       -2.1402021401      -11.1839374563  CLST         547          1.0000000000
      1640       547  TIP3  H1           -3.4513324968       -2.1041074551      -10.1920391216  CLST         547          1.0000000000
      1641       547  TIP3  H2           -3.7785414070       -1.2100556009      -11.3145665817  CLST         547          1.0000000000
      1642       548  TIP3  OH2          10.5533525245        2.4478222889        1.4151706956  CLST         548          1.0000000000
      1643       548  TIP3  H1            9.6210019613        2.1471918095        1.4153410545  CLST         548          1.0000000000
      1644       548  TIP3  H2           10.3529880061        3.2219343474        2.0491900413  CLST         548          1.0000000000
