* MLpot PhysNet steepest descent (USER / MMML)
*
        150  EXT
         1         1  TIP3  OH2           5.0284384789        1.2621505372       -3.4755497489  CLST           1          1.0000000000
         2         1  TIP3  H1            4.3674659044        1.2008879997       -4.1565629205  CLST           1          1.0000000000
         3         1  TIP3  H2            4.4798515955        1.5840291966       -2.7158445887  CLST           1          1.0000000000
         4         2  TIP3  OH2          -0.9096790819        9.1959882184      -12.4440079841  CLST           2          1.0000000000
         5         2  TIP3  H1           -0.2538691289        8.5327249387      -12.2519910327  CLST           2          1.0000000000
         6         2  TIP3  H2           -0.4491016052       10.0196937291      -12.3194958064  CLST           2          1.0000000000
         7         3  TIP3  OH2           9.8094161411       -7.1110798352       -2.5705260561  CLST           3          1.0000000000
         8         3  TIP3  H1           10.1519223334       -7.9931520308       -2.5691365238  CLST           3          1.0000000000
         9         3  TIP3  H2            8.9924011937       -7.1644081187       -2.0956998778  CLST           3          1.0000000000
        10         4  TIP3  OH2           8.8717252778        3.2400110797        4.0317550259  CLST           4          1.0000000000
        11         4  TIP3  H1            8.6788481438        2.4961675121        3.4720619031  CLST           4          1.0000000000
        12         4  TIP3  H2            8.9083236093        3.9771075770        3.3820074862  CLST           4          1.0000000000
        13         5  TIP3  OH2          -4.4237041271       -9.6787331412       -1.3067004101  CLST           5          1.0000000000
        14         5  TIP3  H1           -3.8240765589       -9.9700364713       -0.6275194742  CLST           5          1.0000000000
        15         5  TIP3  H2           -4.1112514221       -8.7656523073       -1.4866629671  CLST           5          1.0000000000
        16         6  TIP3  OH2           4.3720083148        8.4345104652       -1.5911920532  CLST           6          1.0000000000
        17         6  TIP3  H1            4.2508426685        7.9963064427       -0.7172328240  CLST           6          1.0000000000
        18         6  TIP3  H2            3.7787903036        7.9313264795       -2.1418723620  CLST           6          1.0000000000
        19         7  TIP3  OH2          -1.3029220921       -6.4373090707      -13.7487630933  CLST           7          1.0000000000
        20         7  TIP3  H1           -0.7778190541       -5.7411009838      -13.3191384495  CLST           7          1.0000000000
        21         7  TIP3  H2           -0.7653713396       -6.6171232584      -14.5543716650  CLST           7          1.0000000000
        22         8  TIP3  OH2          -8.6274316997        6.1683189656        1.3857585910  CLST           8          1.0000000000
        23         8  TIP3  H1           -8.0556967377        5.9510222267        2.1627585089  CLST           8          1.0000000000
        24         8  TIP3  H2           -7.9789969168        6.0931541098        0.6512479797  CLST           8          1.0000000000
        25         9  TIP3  OH2          -4.1183148034       -7.1000849750       -2.2214419164  CLST           9          1.0000000000
        26         9  TIP3  H1           -4.0551356970       -6.2127688752       -2.5600934250  CLST           9          1.0000000000
        27         9  TIP3  H2           -4.9219101786       -7.4403323609       -2.6714186132  CLST           9          1.0000000000
        28        10  TIP3  OH2          -9.4095390388        6.9239208051        5.0709950915  CLST          10          1.0000000000
        29        10  TIP3  H1          -10.2723724792        6.4592748429        4.8905081260  CLST          10          1.0000000000
        30        10  TIP3  H2           -9.6177166092        7.7954574591        4.7182298282  CLST          10          1.0000000000
        31        11  TIP3  OH2          -2.8051957278       -8.6703861139      -13.3615578000  CLST          11          1.0000000000
        32        11  TIP3  H1           -3.7354039485       -8.3536675071      -13.4189918604  CLST          11          1.0000000000
        33        11  TIP3  H2           -2.3142680213       -7.8120776479      -13.4463245877  CLST          11          1.0000000000
        34        12  TIP3  OH2           4.0996685261        7.0720194528        0.7814383638  CLST          12          1.0000000000
        35        12  TIP3  H1            4.9536021958        6.6060160115        0.9600297748  CLST          12          1.0000000000
        36        12  TIP3  H2            3.8702290582        7.3967361730        1.6515518462  CLST          12          1.0000000000
        37        13  TIP3  OH2          -5.8194507663        8.1320179179       -8.0203384530  CLST          13          1.0000000000
        38        13  TIP3  H1           -5.5770609292        7.8226068107       -8.9288641704  CLST          13          1.0000000000
        39        13  TIP3  H2           -5.5110463627        9.0311352560       -8.0550303660  CLST          13          1.0000000000
        40        14  TIP3  OH2         -11.2851284923        5.7205569692        1.7264769512  CLST          14          1.0000000000
        41        14  TIP3  H1          -11.5313678598        5.7014711572        0.8040075935  CLST          14          1.0000000000
        42        14  TIP3  H2          -10.3058405563        5.8474480271        1.6510961486  CLST          14          1.0000000000
        43        15  TIP3  OH2          -1.1261436011       -9.7225176273       14.2358205644  CLST          15          1.0000000000
        44        15  TIP3  H1           -1.7229297879       -9.4159766372       14.9499843185  CLST          15          1.0000000000
        45        15  TIP3  H2           -1.4463556791      -10.6091378146       14.0775259745  CLST          15          1.0000000000
        46        16  TIP3  OH2          -0.1999425788       -2.2606182921      -10.2604664641  CLST          16          1.0000000000
        47        16  TIP3  H1            0.6129209834       -2.2838197683      -10.8116122229  CLST          16          1.0000000000
        48        16  TIP3  H2           -0.0730739174       -1.4722717714       -9.7399560888  CLST          16          1.0000000000
        49        17  TIP3  OH2          -5.0663963079        7.5330380500      -10.5684489838  CLST          17          1.0000000000
        50        17  TIP3  H1           -5.1776301290        6.7379222266      -11.0786356181  CLST          17          1.0000000000
        51        17  TIP3  H2           -4.5483213130        8.0829288394      -11.2116410763  CLST          17          1.0000000000
        52        18  TIP3  OH2           7.3182539387      -11.3303009492       10.9517966047  CLST          18          1.0000000000
        53        18  TIP3  H1            8.0910356773      -11.8768654498       10.9853687021  CLST          18          1.0000000000
        54        18  TIP3  H2            7.1105654812      -11.1452492053       11.8588653921  CLST          18          1.0000000000
        55        19  TIP3  OH2           7.6992714351        1.6228537815       -3.0959923265  CLST          19          1.0000000000
        56        19  TIP3  H1            6.7226390819        1.5719936691       -3.2513119554  CLST          19          1.0000000000
        57        19  TIP3  H2            7.9186678911        0.6980493060       -3.0476107418  CLST          19          1.0000000000
        58        20  TIP3  OH2           1.7590460181       -2.9201219046      -12.0610908418  CLST          20          1.0000000000
        59        20  TIP3  H1            1.0903946837       -3.6190210015      -12.2048039896  CLST          20          1.0000000000
        60        20  TIP3  H2            2.4356604924       -3.1434207692      -12.6942423343  CLST          20          1.0000000000
        61        21  TIP3  OH2          -3.9854381770       -9.6710631891      -11.0520182627  CLST          21          1.0000000000
        62        21  TIP3  H1           -3.3885654013       -9.4468837484      -11.7977530934  CLST          21          1.0000000000
        63        21  TIP3  H2           -3.3987719507      -10.1117253072      -10.4458335169  CLST          21          1.0000000000
        64        22  TIP3  OH2           2.6360971305       -8.8809339132        0.5371150798  CLST          22          1.0000000000
        65        22  TIP3  H1            2.9661148163       -9.5439612599        1.1816113155  CLST          22          1.0000000000
        66        22  TIP3  H2            2.1778303335       -9.4213623786       -0.0981322427  CLST          22          1.0000000000
        67        23  TIP3  OH2           3.7118728704      -10.1679148813        2.7204537935  CLST          23          1.0000000000
        68        23  TIP3  H1            3.8166657027       -9.2130310464        2.9223935532  CLST          23          1.0000000000
        69        23  TIP3  H2            4.0529621751      -10.5816823564        3.5077400995  CLST          23          1.0000000000
        70        24  TIP3  OH2          -7.5704826896        6.9203163929       -3.3570875410  CLST          24          1.0000000000
        71        24  TIP3  H1           -7.3945929140        6.8386656626       -4.3268350022  CLST          24          1.0000000000
        72        24  TIP3  H2           -8.1911726490        7.6818419613       -3.3607240638  CLST          24          1.0000000000
        73        25  TIP3  OH2          10.4321755662        4.4885940674        9.1055559570  CLST          25          1.0000000000
        74        25  TIP3  H1           10.2621984886        4.0460191120        8.2406384252  CLST          25          1.0000000000
        75        25  TIP3  H2           10.9269370735        3.8246491822        9.5735077644  CLST          25          1.0000000000
        76        26  TIP3  OH2           8.7596029721        4.0795428374       -2.6093596302  CLST          26          1.0000000000
        77        26  TIP3  H1            8.3554520007        3.1775528293       -2.6691170355  CLST          26          1.0000000000
        78        26  TIP3  H2            9.0432090018        4.2013246762       -3.5091157308  CLST          26          1.0000000000
        79        27  TIP3  OH2          -8.6951400168        8.5099130806       -0.2635301907  CLST          27          1.0000000000
        80        27  TIP3  H1           -9.0156003840        8.0166815707        0.5127298301  CLST          27          1.0000000000
        81        27  TIP3  H2           -7.9447496937        7.9295922910       -0.5042687927  CLST          27          1.0000000000
        82        28  TIP3  OH2          -3.6277962823        8.7306260801      -12.5295096336  CLST          28          1.0000000000
        83        28  TIP3  H1           -3.8343529255        9.0617932379      -13.4308923190  CLST          28          1.0000000000
        84        28  TIP3  H2           -2.6614341148        8.9023984084      -12.4945513534  CLST          28          1.0000000000
        85        29  TIP3  OH2         -12.7252036741       -4.3282601934      -11.2645265742  CLST          29          1.0000000000
        86        29  TIP3  H1          -13.5045401716       -4.2857564453      -11.7998737133  CLST          29          1.0000000000
        87        29  TIP3  H2          -12.7815513999       -3.5796084716      -10.6880150238  CLST          29          1.0000000000
        88        30  TIP3  OH2           8.8687106977        8.0719691666       -1.8492872441  CLST          30          1.0000000000
        89        30  TIP3  H1            8.0773392733        8.6663437223       -1.8362886908  CLST          30          1.0000000000
        90        30  TIP3  H2            9.3926307616        8.4834322306       -2.5272885337  CLST          30          1.0000000000
        91        31  TIP3  OH2           8.9856000242        5.2229809045        2.1404729027  CLST          31          1.0000000000
        92        31  TIP3  H1            9.6102479893        5.9118382768        2.3674275383  CLST          31          1.0000000000
        93        31  TIP3  H2            8.9409440495        5.3254117000        1.1567180333  CLST          31          1.0000000000
        94        32  TIP3  OH2           8.7114369628        6.1482988426        7.7312756659  CLST          32          1.0000000000
        95        32  TIP3  H1            8.3591361357        6.8446281983        8.2722787003  CLST          32          1.0000000000
        96        32  TIP3  H2            9.3416579528        5.7096000087        8.3422155066  CLST          32          1.0000000000
        97        33  TIP3  OH2           3.6672838822       -7.4134844969        2.6257975422  CLST          33          1.0000000000
        98        33  TIP3  H1            3.2605558961       -7.7053677284        1.7816882794  CLST          33          1.0000000000
        99        33  TIP3  H2            3.5939839305       -6.4660470805        2.5736374010  CLST          33          1.0000000000
       100        34  TIP3  OH2          -7.2790633827        5.7281341396        3.7439231597  CLST          34          1.0000000000
       101        34  TIP3  H1           -6.6510193192        5.4989228209        4.4367317834  CLST          34          1.0000000000
       102        34  TIP3  H2           -8.0148299777        6.1078348673        4.2724967328  CLST          34          1.0000000000
       103        35  TIP3  OH2           8.5064041862        5.7427149059       -0.4828669861  CLST          35          1.0000000000
       104        35  TIP3  H1            8.6196894344        5.1094980267       -1.2408486016  CLST          35          1.0000000000
       105        35  TIP3  H2            8.6738450460        6.5946496191       -0.9639455656  CLST          35          1.0000000000
       106        36  TIP3  OH2           9.5941624661        3.7162200035        6.6398393298  CLST          36          1.0000000000
       107        36  TIP3  H1            9.1078365697        4.5569228171        6.7118272646  CLST          36          1.0000000000
       108        36  TIP3  H2            9.3684504713        3.4524362774        5.7151663488  CLST          36          1.0000000000
       109        37  TIP3  OH2          -6.9280498848        6.3961191076       -0.7966002521  CLST          37          1.0000000000
       110        37  TIP3  H1           -7.2154504583        6.4813711953       -1.7482081507  CLST          37          1.0000000000
       111        37  TIP3  H2           -6.0190048750        6.1287866260       -0.9232728123  CLST          37          1.0000000000
       112        38  TIP3  OH2          -9.2086302420        9.0959696993       -2.8909264505  CLST          38          1.0000000000
       113        38  TIP3  H1           -9.1196125640        8.9277893314       -1.9240997496  CLST          38          1.0000000000
       114        38  TIP3  H2           -9.5259353030        9.9916838409       -2.9063372158  CLST          38          1.0000000000
       115        39  TIP3  OH2          -5.4622311783       -8.1471280285      -12.8161884670  CLST          39          1.0000000000
       116        39  TIP3  H1           -5.2002551355       -8.7097606783      -12.0585014763  CLST          39          1.0000000000
       117        39  TIP3  H2           -6.3395634843       -7.8669961932      -12.5781302411  CLST          39          1.0000000000
       118        40  TIP3  OH2          -4.1498232331        9.6316841471       14.9090445777  CLST          40          1.0000000000
       119        40  TIP3  H1           -3.7266007558        9.4240717729       14.0813573534  CLST          40          1.0000000000
       120        40  TIP3  H2           -4.9424865721       10.0931343974       14.6523094247  CLST          40          1.0000000000
       121        41  TIP3  OH2           0.0814571896       -7.3689997852       14.0688983720  CLST          41          1.0000000000
       122        41  TIP3  H1            0.4115170533       -7.5406852633       13.1895638945  CLST          41          1.0000000000
       123        41  TIP3  H2           -0.2933680772       -8.2520267185       14.3000225423  CLST          41          1.0000000000
       124        42  TIP3  OH2           6.7255608369        9.7464068694       -1.9721486966  CLST          42          1.0000000000
       125        42  TIP3  H1            6.3780325627       10.6316951724       -1.9997959084  CLST          42          1.0000000000
       126        42  TIP3  H2            5.8937140160        9.2219293647       -1.8570787558  CLST          42          1.0000000000
       127        43  TIP3  OH2           3.3516484423        2.1813048754       -1.5445100022  CLST          43          1.0000000000
       128        43  TIP3  H1            2.6387085069        1.9294175114       -0.9668255432  CLST          43          1.0000000000
       129        43  TIP3  H2            3.6632762055        3.0076146608       -1.0963934648  CLST          43          1.0000000000
       130        44  TIP3  OH2          -0.5858159405       -4.4551670912      -11.8925037646  CLST          44          1.0000000000
       131        44  TIP3  H1           -0.6008406992       -3.7277838370      -11.2243729619  CLST          44          1.0000000000
       132        44  TIP3  H2           -1.4548427325       -4.8428675811      -11.7440321731  CLST          44          1.0000000000
       133        45  TIP3  OH2           6.3058257093        5.5111139537        1.1201756627  CLST          45          1.0000000000
       134        45  TIP3  H1            6.9118718508        5.2954058286        1.8547771293  CLST          45          1.0000000000
       135        45  TIP3  H2            6.9849462100        5.6293280064        0.4094589801  CLST          45          1.0000000000
       136        46  TIP3  OH2         -11.7893280162        5.8335231200        4.3907539656  CLST          46          1.0000000000
       137        46  TIP3  H1          -12.4966246736        5.2070664251        4.5167987364  CLST          46          1.0000000000
       138        46  TIP3  H2          -11.6703722029        5.8032285219        3.4069776146  CLST          46          1.0000000000
       139        47  TIP3  OH2          -8.0147755472        5.7520616309        7.1494898939  CLST          47          1.0000000000
       140        47  TIP3  H1           -8.4657440111        6.2961431014        6.4594225953  CLST          47          1.0000000000
       141        47  TIP3  H2           -8.7583129588        5.3624769073        7.5962403849  CLST          47          1.0000000000
       142        48  TIP3  OH2           4.0420202131        4.3701953021       -0.0933703814  CLST          48          1.0000000000
       143        48  TIP3  H1            3.6900462945        5.2669910633        0.0440062105  CLST          48          1.0000000000
       144        48  TIP3  H2            4.9227320248        4.4838703025        0.3168704206  CLST          48          1.0000000000
       145        49  TIP3  OH2          -7.2147857097        6.8202512797       -6.0749142521  CLST          49          1.0000000000
       146        49  TIP3  H1           -7.7595931231        6.3818048890       -6.7179592449  CLST          49          1.0000000000
       147        49  TIP3  H2           -6.6198512229        7.3385279215       -6.6701064364  CLST          49          1.0000000000
       148        50  TIP3  OH2          -6.2261427630       -8.6311825112       -3.1083105348  CLST          50          1.0000000000
       149        50  TIP3  H1           -5.7259933507       -9.2167577453       -2.5002062872  CLST          50          1.0000000000
       150        50  TIP3  H2           -6.9885760177       -9.1594891591       -3.3215629807  CLST          50          1.0000000000
