* Geometry rescue: HEAT after early-abort recovery (step 0)
*
        150  EXT
         1         1  TIP3  OH2           5.0804088212        1.5767282235       -3.3838698172  CLST           1          1.0000000000
         2         1  TIP3  H1            4.7658424412        2.4012087510       -2.3930528422  CLST           1          1.0000000000
         3         1  TIP3  H2            4.4141749554        2.8741996952       -1.0593574425  CLST           1          1.0000000000
         4         2  TIP3  OH2          -1.3014477238        9.1125133795      -12.2358994012  CLST           2          1.0000000000
         5         2  TIP3  H1           -1.0783619132        7.6465042829      -12.0553905605  CLST           2          1.0000000000
         6         2  TIP3  H2           -0.9018756244        9.6201064299      -11.7226559873  CLST           2          1.0000000000
         7         3  TIP3  OH2           9.8091939111       -7.1661363630       -2.6147718525  CLST           3          1.0000000000
         8         3  TIP3  H1           10.3654846288       -7.8006100667       -2.2097965940  CLST           3          1.0000000000
         9         3  TIP3  H2            9.0744720921       -6.7833604090       -2.6404345688  CLST           3          1.0000000000
        10         4  TIP3  OH2           9.0289657051        3.6703848912        3.9317611595  CLST           4          1.0000000000
        11         4  TIP3  H1            8.7543411210        4.6208568898        3.0510434022  CLST           4          1.0000000000
        12         4  TIP3  H2            7.1401325144        6.0336004509        2.8426954857  CLST           4          1.0000000000
        13         5  TIP3  OH2          -4.4426289154       -9.5894254315       -1.4728399326  CLST           5          1.0000000000
        14         5  TIP3  H1           -0.9963955677       -9.6087512278        0.6825885552  CLST           5          1.0000000000
        15         5  TIP3  H2           -4.2767742758       -8.2441531104       -2.1461193958  CLST           5          1.0000000000
        16         6  TIP3  OH2           4.3567490612        8.0115853963       -1.0811750065  CLST           6          1.0000000000
        17         6  TIP3  H1            6.3194354660        4.8096365557        0.0503689394  CLST           6          1.0000000000
        18         6  TIP3  H2            4.6111769729        5.3842545169        0.0663528865  CLST           6          1.0000000000
        19         7  TIP3  OH2          -1.2181588266       -6.7170258058      -13.5905607493  CLST           7          1.0000000000
        20         7  TIP3  H1           -0.6812400719       -2.8967504379      -13.2012414491  CLST           7          1.0000000000
        21         7  TIP3  H2           -0.8215180705       -6.7944023528      -14.7255969075  CLST           7          1.0000000000
        22         8  TIP3  OH2          -8.3889086332        6.4288805221        0.9996116310  CLST           8          1.0000000000
        23         8  TIP3  H1           -6.8582129457        4.8958250736        3.1378278297  CLST           8          1.0000000000
        24         8  TIP3  H2           -7.1148645539        5.7622216522        0.8731944851  CLST           8          1.0000000000
        25         9  TIP3  OH2          -3.8570886020       -7.0250527208       -1.7792397783  CLST           9          1.0000000000
        26         9  TIP3  H1           -5.8809432161       -7.3528898529       -3.9217453718  CLST           9          1.0000000000
        27         9  TIP3  H2           -4.5220848305       -6.6734763235       -1.4604239550  CLST           9          1.0000000000
        28        10  TIP3  OH2          -9.1037585850        6.3397147248        5.2204248686  CLST          10          1.0000000000
        29        10  TIP3  H1          -14.4954910821       12.0065065379        2.3633908661  CLST          10          1.0000000000
        30        10  TIP3  H2          -10.8260808742        6.4234632506        4.8922714056  CLST          10          1.0000000000
        31        11  TIP3  OH2          -2.6168816390       -8.4871395243      -13.5570060803  CLST          11          1.0000000000
        32        11  TIP3  H1           -3.0550109432       -8.2024705090      -12.5502586153  CLST          11          1.0000000000
        33        11  TIP3  H2           -1.9431827851       -7.2314057450      -13.4581193018  CLST          11          1.0000000000
        34        12  TIP3  OH2           4.7228097463        6.8239198289       -0.5089018481  CLST          12          1.0000000000
        35        12  TIP3  H1            7.1897922935        4.6130853103        1.6881612082  CLST          12          1.0000000000
        36        12  TIP3  H2            5.0486561765        8.5644718345       -1.0624722837  CLST          12          1.0000000000
        37        13  TIP3  OH2          -5.9107439055        7.9831449006       -8.1215882707  CLST          13          1.0000000000
        38        13  TIP3  H1           -5.7979398746        7.8927311902       -9.3713143676  CLST          13          1.0000000000
        39        13  TIP3  H2           -5.1949825263        7.1106402531       -8.6603779481  CLST          13          1.0000000000
        40        14  TIP3  OH2         -11.5848831049        5.6429983919        2.2729014235  CLST          14          1.0000000000
        41        14  TIP3  H1           -9.0545362359        5.3544963424       -0.0061823127  CLST          14          1.0000000000
        42        14  TIP3  H2           -9.1632252396        6.2112680032        0.9888166263  CLST          14          1.0000000000
        43        15  TIP3  OH2          -1.2755490201       -9.3402223970       13.9824202173  CLST          15          1.0000000000
        44        15  TIP3  H1           -2.1792706314       -8.7313859822       14.9500000000  CLST          15          1.0000000000
        45        15  TIP3  H2           -0.7575698240       -9.4905461821       13.3803330627  CLST          15          1.0000000000
        46        16  TIP3  OH2          -0.2389775857       -2.2992890205      -10.4109836340  CLST          16          1.0000000000
        47        16  TIP3  H1            0.8164727698       -2.8202602953      -11.4243278600  CLST          16          1.0000000000
        48        16  TIP3  H2            0.4779532261       -1.5817817647      -10.0671498793  CLST          16          1.0000000000
        49        17  TIP3  OH2          -5.2933417940        7.5944312593      -10.3228901332  CLST          17          1.0000000000
        50        17  TIP3  H1           -4.4494503449        8.2040500811      -11.1752520808  CLST          17          1.0000000000
        51        17  TIP3  H2           -4.1202800893        8.1471359919      -12.1852925292  CLST          17          1.0000000000
        52        18  TIP3  OH2           7.3261221966      -11.2874402829       11.1964822917  CLST          18          1.0000000000
        53        18  TIP3  H1            7.8356343147      -11.4317486677       10.5403581098  CLST          18          1.0000000000
        54        18  TIP3  H2            7.2997945638      -11.0921997773       12.1110741967  CLST          18          1.0000000000
        55        19  TIP3  OH2           7.9055346863        2.3154579704       -2.4584274471  CLST          19          1.0000000000
        56        19  TIP3  H1            4.2448204590        1.0867892218       -2.5796551370  CLST          19          1.0000000000
        57        19  TIP3  H2            7.7364978898        5.2356493131       -1.6851059599  CLST          19          1.0000000000
        58        20  TIP3  OH2           1.6144113867       -2.9467932773      -11.9203129634  CLST          20          1.0000000000
        59        20  TIP3  H1            0.2966333673       -4.9454837341      -12.7714590786  CLST          20          1.0000000000
        60        20  TIP3  H2            1.8416218048       -3.5041263806      -12.4779246534  CLST          20          1.0000000000
        61        21  TIP3  OH2          -3.8986599547       -9.5383099021      -11.3474340639  CLST          21          1.0000000000
        62        21  TIP3  H1           -1.7169613336       -8.6246084437      -14.2502071220  CLST          21          1.0000000000
        63        21  TIP3  H2           -2.9167258272      -10.1601195474      -10.6792899074  CLST          21          1.0000000000
        64        22  TIP3  OH2           2.8492089849       -8.7721158932        0.5651949704  CLST          22          1.0000000000
        65        22  TIP3  H1            3.0739958632      -10.4101458016        0.6950318889  CLST          22          1.0000000000
        66        22  TIP3  H2            3.8569795330      -10.1866504615        2.9896770635  CLST          22          1.0000000000
        67        23  TIP3  OH2           3.5050672787      -10.6461044278        2.3190207208  CLST          23          1.0000000000
        68        23  TIP3  H1            3.6051186997       -6.3427113414        2.6806409560  CLST          23          1.0000000000
        69        23  TIP3  H2            3.2607709699       -9.0550228551        2.5846148968  CLST          23          1.0000000000
        70        24  TIP3  OH2          -7.6690604208        7.0375427357       -3.4161831972  CLST          24          1.0000000000
        71        24  TIP3  H1           -7.4792753045        6.5041837586       -4.6303674482  CLST          24          1.0000000000
        72        24  TIP3  H2           -8.4728968849        8.8690019965       -3.9471406341  CLST          24          1.0000000000
        73        25  TIP3  OH2          10.3362300668        4.3993107790        8.9403699400  CLST          25          1.0000000000
        74        25  TIP3  H1           10.1785945789        2.1667543385        5.5081237087  CLST          25          1.0000000000
        75        25  TIP3  H2           10.1671891142        4.4787440884        8.9218684405  CLST          25          1.0000000000
        76        26  TIP3  OH2           8.3365591823        4.2284498819       -3.4550405005  CLST          26          1.0000000000
        77        26  TIP3  H1            8.2713063112        3.0067493729       -4.2353676468  CLST          26          1.0000000000
        78        26  TIP3  H2            4.3260859132        3.4033875180       14.9500000000  CLST          26          1.0000000000
        79        27  TIP3  OH2          -8.5778197455        8.3451285861       -0.1407861765  CLST          27          1.0000000000
        80        27  TIP3  H1           -8.3744955384        7.0944799904        0.4407787914  CLST          27          1.0000000000
        81        27  TIP3  H2           -7.9485051459        8.6436240974       -0.1352885271  CLST          27          1.0000000000
        82        28  TIP3  OH2          -3.5068986235        8.5994125302      -11.9942911839  CLST          28          1.0000000000
        83        28  TIP3  H1           -3.8981965102       10.2006489680      -14.9500000000  CLST          28          1.0000000000
        84        28  TIP3  H2           -2.1694713643        9.2257291253      -12.2304971893  CLST          28          1.0000000000
        85        29  TIP3  OH2         -12.8314539289       -4.5283306210      -11.2512098034  CLST          29          1.0000000000
        86        29  TIP3  H1          -13.3615466038       -4.1072075660      -11.8401098382  CLST          29          1.0000000000
        87        29  TIP3  H2          -12.9938951488       -3.9078502097      -10.6173925702  CLST          29          1.0000000000
        88        30  TIP3  OH2           8.5087686271        7.4774265394       -1.4859959066  CLST          30          1.0000000000
        89        30  TIP3  H1            7.8435118370        8.5039561466       -1.7332178018  CLST          30          1.0000000000
        90        30  TIP3  H2            8.1107080051       10.0996125811       -2.3768812315  CLST          30          1.0000000000
        91        31  TIP3  OH2           8.0052316229        4.8117176351        1.8916023786  CLST          31          1.0000000000
        92        31  TIP3  H1            9.4920170432        6.2353736143       -8.8359226159  CLST          31          1.0000000000
        93        31  TIP3  H2           14.2430622168        7.2161077463        5.1912636413  CLST          31          1.0000000000
        94        32  TIP3  OH2           8.6838297802        5.9290364495        7.8478644634  CLST          32          1.0000000000
        95        32  TIP3  H1            8.5709890470        6.7072085159        8.2004589888  CLST          32          1.0000000000
        96        32  TIP3  H2            9.4840266359        4.8363422240        8.2607770478  CLST          32          1.0000000000
        97        33  TIP3  OH2           3.6139979546       -7.2410703461        2.7748689195  CLST          33          1.0000000000
        98        33  TIP3  H1            3.2361443002       -7.8866509070        1.6343579264  CLST          33          1.0000000000
        99        33  TIP3  H2            4.3038354400       -2.8109376107        4.2062807447  CLST          33          1.0000000000
       100        34  TIP3  OH2          -7.8989039030        6.0175209918        3.3346482946  CLST          34          1.0000000000
       101        34  TIP3  H1           -7.8671972744        5.9193010563        5.4049329787  CLST          34          1.0000000000
       102        34  TIP3  H2           -8.7008515253        6.0082418143        4.4102748317  CLST          34          1.0000000000
       103        35  TIP3  OH2           8.0827321880        4.9789498890        0.1091672347  CLST          35          1.0000000000
       104        35  TIP3  H1            2.8067942704        9.8570910771       -1.0165404908  CLST          35          1.0000000000
       105        35  TIP3  H2            9.9746870378        0.6935069744        1.0975951137  CLST          35          1.0000000000
       106        36  TIP3  OH2           9.6280327946        3.7434910752        6.4188858321  CLST          36          1.0000000000
       107        36  TIP3  H1            8.8045355603        4.7706408513        6.7330487031  CLST          36          1.0000000000
       108        36  TIP3  H2            8.9893874359        3.8316400862        5.0864277146  CLST          36          1.0000000000
       109        37  TIP3  OH2          -7.3457915690        6.4503697026       -0.3866175920  CLST          37          1.0000000000
       110        37  TIP3  H1           -7.5296161938        6.5877537737       -2.7819400110  CLST          37          1.0000000000
       111        37  TIP3  H2           -8.1571250320        6.2241042673       -1.6058067631  CLST          37          1.0000000000
       112        38  TIP3  OH2          -8.9256009365        8.8091538361       -3.2465690763  CLST          38          1.0000000000
       113        38  TIP3  H1           -8.5766531135        8.3005323009       -1.1645960006  CLST          38          1.0000000000
       114        38  TIP3  H2           -8.9235896640        8.6810272975       -2.2327981676  CLST          38          1.0000000000
       115        39  TIP3  OH2          -5.0435368455       -8.2295707805      -12.8619809095  CLST          39          1.0000000000
       116        39  TIP3  H1           -4.7011730035       -9.1034228375      -11.3918508712  CLST          39          1.0000000000
       117        39  TIP3  H2           -5.8958976435       -8.3698778071      -12.7131784778  CLST          39          1.0000000000
       118        40  TIP3  OH2          -4.2925861710        9.5470766096       14.5603041917  CLST          40          1.0000000000
       119        40  TIP3  H1           -4.5546853907        8.8720091066       13.3105542613  CLST          40          1.0000000000
       120        40  TIP3  H2           -5.2734371060        9.3936710702       14.9500000000  CLST          40          1.0000000000
       121        41  TIP3  OH2          -0.1215833098       -7.1427528658       14.2400793038  CLST          41          1.0000000000
       122        41  TIP3  H1           -0.1366194280       -7.0886702683       14.1428960829  CLST          41          1.0000000000
       123        41  TIP3  H2           -0.6434544692       -8.3878414156       14.1075106175  CLST          41          1.0000000000
       124        42  TIP3  OH2           7.4487039802        9.6600500385       -2.1393188904  CLST          42          1.0000000000
       125        42  TIP3  H1            4.5022237864        9.5692654067       -2.7201536081  CLST          42          1.0000000000
       126        42  TIP3  H2            3.6803556295        7.2351478985       -0.5651997398  CLST          42          1.0000000000
       127        43  TIP3  OH2           3.8298649793        1.9972047982       -1.6096610209  CLST          43          1.0000000000
       128        43  TIP3  H1            0.7918971406        3.0069659880       -1.8352666047  CLST          43          1.0000000000
       129        43  TIP3  H2            0.7624289241        1.1081718849       -2.0854853257  CLST          43          1.0000000000
       130        44  TIP3  OH2          -0.5499561780       -4.5529398792      -11.9401582216  CLST          44          1.0000000000
       131        44  TIP3  H1           -2.1260930529       -2.5681555094       -9.9179058836  CLST          44          1.0000000000
       132        44  TIP3  H2           -0.6369163222       -5.0863102933      -11.5028258444  CLST          44          1.0000000000
       133        45  TIP3  OH2           6.4738999804        5.9131452973        0.6854062224  CLST          45          1.0000000000
       134        45  TIP3  H1            9.1934198790        6.1921102466        5.9602496606  CLST          45          1.0000000000
       135        45  TIP3  H2            7.5942034933        4.3551059986       -4.1077105494  CLST          45          1.0000000000
       136        46  TIP3  OH2         -10.9169988215        5.7961249048        4.3423372219  CLST          46          1.0000000000
       137        46  TIP3  H1          -11.7318073390        4.9046587948        1.7506989682  CLST          46          1.0000000000
       138        46  TIP3  H2          -10.5672666035        5.6452279791        3.0715716677  CLST          46          1.0000000000
       139        47  TIP3  OH2          -8.0874632276        5.6926956063        6.5889881477  CLST          47          1.0000000000
       140        47  TIP3  H1           -9.4258858120        6.4505418793        6.4350573646  CLST          47          1.0000000000
       141        47  TIP3  H2          -10.4296093109        6.8145347328        8.0318568537  CLST          47          1.0000000000
       142        48  TIP3  OH2           5.1002986441        4.9876676637        0.0601702608  CLST          48          1.0000000000
       143        48  TIP3  H1           10.1729315197        3.1636671401        1.1940071676  CLST          48          1.0000000000
       144        48  TIP3  H2           -8.1423660611        7.4295466930        1.2371256767  CLST          48          1.0000000000
       145        49  TIP3  OH2          -7.2874763785        6.6456862410       -5.6283243189  CLST          49          1.0000000000
       146        49  TIP3  H1           -6.5164338340        6.4290587660       -6.9427712916  CLST          49          1.0000000000
       147        49  TIP3  H2           -6.1902436369        7.7751141855       -7.2255883833  CLST          49          1.0000000000
       148        50  TIP3  OH2          -6.5211294979       -8.1903908321       -3.7763172567  CLST          50          1.0000000000
       149        50  TIP3  H1           -3.8982825817      -10.0957447844       -0.9439015912  CLST          50          1.0000000000
       150        50  TIP3  H2           -6.3122971078       -9.5092008535       -3.2740408284  CLST          50          1.0000000000
