* Geometry rescue: HEAT after early-abort recovery (step 0)
*
        150  EXT
         1         1  TIP3  OH2           5.1818199229        1.6590395543       -2.8778255433  CLST           1          1.0000000000
         2         1  TIP3  H1            3.7228905553        1.9243472028       -3.0333487762  CLST           1          1.0000000000
         3         1  TIP3  H2            3.2909083825        1.7693483646       -1.7235161296  CLST           1          1.0000000000
         4         2  TIP3  OH2          -1.2702472945        9.1584512773      -12.5200150284  CLST           2          1.0000000000
         5         2  TIP3  H1           -0.6462924726        8.7133086807      -12.6814452957  CLST           2          1.0000000000
         6         2  TIP3  H2           -0.8453363317        9.8506017361      -12.5075108487  CLST           2          1.0000000000
         7         3  TIP3  OH2           9.6775162358       -7.1319745993       -2.4775487357  CLST           3          1.0000000000
         8         3  TIP3  H1           10.4356714227       -7.3212634749       -2.9329661250  CLST           3          1.0000000000
         9         3  TIP3  H2            9.0830490020       -6.6496248652       -2.1068013612  CLST           3          1.0000000000
        10         4  TIP3  OH2           8.8973824340        3.3124826964        3.8437046395  CLST           4          1.0000000000
        11         4  TIP3  H1            8.4783163117        2.6893450762        3.1505920410  CLST           4          1.0000000000
        12         4  TIP3  H2            8.4178407078        4.7753026907        2.3080084361  CLST           4          1.0000000000
        13         5  TIP3  OH2          -4.2977671372       -9.7849337779       -1.2723594247  CLST           5          1.0000000000
        14         5  TIP3  H1           -2.8361527925       -9.4665265407       -0.6999118819  CLST           5          1.0000000000
        15         5  TIP3  H2           -4.0300066072       -8.5523189040       -1.6406441933  CLST           5          1.0000000000
        16         6  TIP3  OH2           5.7772243877        8.3252811395       -0.6921093152  CLST           6          1.0000000000
        17         6  TIP3  H1            5.1672814195        7.5141245185       -0.1055015471  CLST           6          1.0000000000
        18         6  TIP3  H2           -2.3882072914       11.0500351261      -10.9777395428  CLST           6          1.0000000000
        19         7  TIP3  OH2          -1.4409975407       -6.1285738332       -7.5025712477  CLST           7          1.0000000000
        20         7  TIP3  H1           -2.6710157358       -2.3174147509      -11.9754105656  CLST           7          1.0000000000
        21         7  TIP3  H2            0.1754551886       -7.7478653082      -14.9500000000  CLST           7          1.0000000000
        22         8  TIP3  OH2          -9.0895148726        6.0620051854        1.7880629957  CLST           8          1.0000000000
        23         8  TIP3  H1           -7.2392695323        6.3465753564        2.8399975057  CLST           8          1.0000000000
        24         8  TIP3  H2           -7.0751250539        6.0984051604        3.9776292299  CLST           8          1.0000000000
        25         9  TIP3  OH2          -4.1009683782       -7.3270302442       -1.9014604550  CLST           9          1.0000000000
        26         9  TIP3  H1           -6.1509519021       -5.6318864577       -3.7596386048  CLST           9          1.0000000000
        27         9  TIP3  H2           -5.2433105657       -7.6703796056       -2.6216063474  CLST           9          1.0000000000
        28        10  TIP3  OH2          -9.1856768246        6.4545461454        4.7514241203  CLST          10          1.0000000000
        29        10  TIP3  H1          -12.3268084443        6.1872851452        6.8609964194  CLST          10          1.0000000000
        30        10  TIP3  H2           -9.9552008858        6.5041489864        3.5377475158  CLST          10          1.0000000000
        31        11  TIP3  OH2          -3.1745757722       -9.1576835792      -13.8510409204  CLST          11          1.0000000000
        32        11  TIP3  H1           -4.2505460329       -8.8761152645      -11.9115026536  CLST          11          1.0000000000
        33        11  TIP3  H2            1.8762613021       -4.1030265364      -12.1048534999  CLST          11          1.0000000000
        34        12  TIP3  OH2           3.8986798010        7.0955025707       -0.1019091575  CLST          12          1.0000000000
        35        12  TIP3  H1            4.9068902035       10.1135945004        1.0127407733  CLST          12          1.0000000000
        36        12  TIP3  H2            4.8059687259        7.1800724196        0.9005866454  CLST          12          1.0000000000
        37        13  TIP3  OH2          -5.9046506703        7.8712340865       -8.1101260536  CLST          13          1.0000000000
        38        13  TIP3  H1           -4.4473635500        8.2277887653       -8.8350182741  CLST          13          1.0000000000
        39        13  TIP3  H2           -4.6906825020        9.9940844218       -8.8193818794  CLST          13          1.0000000000
        40        14  TIP3  OH2         -10.9019581776        5.7924364475        2.3477068750  CLST          14          1.0000000000
        41        14  TIP3  H1           -9.9363548510        6.1206371861        1.5321027450  CLST          14          1.0000000000
        42        14  TIP3  H2           -9.8901329305        5.0111055584        2.8195627252  CLST          14          1.0000000000
        43        15  TIP3  OH2          -1.0444932485       -9.3915843112       -0.5214276299  CLST          15          1.0000000000
        44        15  TIP3  H1           -4.5658304033       -7.3796716206       14.9500000000  CLST          15          1.0000000000
        45        15  TIP3  H2           -1.8385425891       -9.3014511960       -0.5988814694  CLST          15          1.0000000000
        46        16  TIP3  OH2          -0.0748597925       -2.8041621347      -10.7281161655  CLST          16          1.0000000000
        47        16  TIP3  H1            1.8467228248       -2.9269342755      -11.2111422037  CLST          16          1.0000000000
        48        16  TIP3  H2           -3.4804400041        1.4733741355       -3.6841532132  CLST          16          1.0000000000
        49        17  TIP3  OH2          -5.1253812876        7.7451702129      -10.9023302111  CLST          17          1.0000000000
        50        17  TIP3  H1           -5.0067486971        7.2585778423       -9.8960408614  CLST          17          1.0000000000
        51        17  TIP3  H2           -4.2119420147        8.2062230233      -11.9351542531  CLST          17          1.0000000000
        52        18  TIP3  OH2           7.3729274427      -11.5318679431       10.9298756835  CLST          18          1.0000000000
        53        18  TIP3  H1            8.0225112072      -12.0311702149       11.0020150259  CLST          18          1.0000000000
        54        18  TIP3  H2            6.7435502831      -10.9648034418       11.2905730260  CLST          18          1.0000000000
        55        19  TIP3  OH2           7.2171078292        2.2547593269       -2.8663919174  CLST          19          1.0000000000
        56        19  TIP3  H1            6.2426082394        1.8794575234       -2.1377564897  CLST          19          1.0000000000
        57        19  TIP3  H2            6.4753603966        0.9884244255       -2.8455459366  CLST          19          1.0000000000
        58        20  TIP3  OH2           1.3030648704       -3.3165154886      -11.9642397358  CLST          20          1.0000000000
        59        20  TIP3  H1            0.4721334506       -3.4771632627      -11.9909946242  CLST          20          1.0000000000
        60        20  TIP3  H2            4.8529944064       -1.8382607064      -13.3214101004  CLST          20          1.0000000000
        61        21  TIP3  OH2          -3.6600181911       -9.4241961617      -11.5530102610  CLST          21          1.0000000000
        62        21  TIP3  H1           -0.9243705330       -9.1056520444      -14.3933909722  CLST          21          1.0000000000
        63        21  TIP3  H2           -2.1453579039      -11.6345914552       -9.8275506605  CLST          21          1.0000000000
        64        22  TIP3  OH2           2.5432419525       -8.1996668886        0.4162580382  CLST          22          1.0000000000
        65        22  TIP3  H1            3.3427394359      -14.6303342643        2.6731363487  CLST          22          1.0000000000
        66        22  TIP3  H2            2.9157983686      -10.0702263495       -0.6233799087  CLST          22          1.0000000000
        67        23  TIP3  OH2           3.7450560715      -10.2474153985        2.5340187144  CLST          23          1.0000000000
        68        23  TIP3  H1            4.2463389732       -8.1112445051        3.5368334329  CLST          23          1.0000000000
        69        23  TIP3  H2            4.4022294061       -9.2229497130        3.8557997782  CLST          23          1.0000000000
        70        24  TIP3  OH2          -7.6670436772        7.0007344424       -3.1405896844  CLST          24          1.0000000000
        71        24  TIP3  H1           -7.8321953131        7.5711775806       -4.0583378105  CLST          24          1.0000000000
        72        24  TIP3  H2           -8.7527459039        9.2071286930       -3.5668528932  CLST          24          1.0000000000
        73        25  TIP3  OH2          10.2193903969        4.5905852392        9.1455206772  CLST          25          1.0000000000
        74        25  TIP3  H1            8.1967270056        4.3365712174        5.3140273787  CLST          25          1.0000000000
        75        25  TIP3  H2           11.2047153320        4.1418027202        9.5907948716  CLST          25          1.0000000000
        76        26  TIP3  OH2           8.0801914423        4.6804466381       -2.5789760567  CLST          26          1.0000000000
        77        26  TIP3  H1            8.3788895491        2.8502732358       -3.5738976192  CLST          26          1.0000000000
        78        26  TIP3  H2            7.9598869525        3.4501586047       -2.6254787351  CLST          26          1.0000000000
        79        27  TIP3  OH2          -8.7509176669        8.2052970720       -0.1584402241  CLST          27          1.0000000000
        80        27  TIP3  H1           -5.4427058877        8.0947372753       -1.9818463512  CLST          27          1.0000000000
        81        27  TIP3  H2           -6.3891977750        8.1701536282       -1.0147001660  CLST          27          1.0000000000
        82        28  TIP3  OH2          -3.6987228869        8.5293987987      -12.5464083159  CLST          28          1.0000000000
        83        28  TIP3  H1           -3.3735379663        9.1284184964      -13.7761114066  CLST          28          1.0000000000
        84        28  TIP3  H2           -2.4213534914        8.9243512616      -13.0994146067  CLST          28          1.0000000000
        85        29  TIP3  OH2         -12.7485488654       -4.2986433526      -11.1848727984  CLST          29          1.0000000000
        86        29  TIP3  H1          -12.9730203242       -5.0543274001      -11.6023190136  CLST          29          1.0000000000
        87        29  TIP3  H2          -12.2138346422       -3.8104923864      -10.7711855552  CLST          29          1.0000000000
        88        30  TIP3  OH2           7.6883786085        7.7420488033       -1.5217801293  CLST          30          1.0000000000
        89        30  TIP3  H1            6.6185696731        4.4258479595       -2.6931559239  CLST          30          1.0000000000
        90        30  TIP3  H2            6.6606286644        7.5924024817       -0.5961752225  CLST          30          1.0000000000
        91        31  TIP3  OH2           8.7450578767        5.1680521461        1.8051641112  CLST          31          1.0000000000
        92        31  TIP3  H1            8.7833569786        7.2211878736        1.6124457582  CLST          31          1.0000000000
        93        31  TIP3  H2           10.4299228659        2.8523278978       -2.1764536652  CLST          31          1.0000000000
        94        32  TIP3  OH2           8.6251949279        5.7907629972        7.6921046240  CLST          32          1.0000000000
        95        32  TIP3  H1            9.0565798159        6.5971999327        8.2965176701  CLST          32          1.0000000000
        96        32  TIP3  H2            9.4076260935        5.0681506299        8.2884025339  CLST          32          1.0000000000
        97        33  TIP3  OH2           4.0156441478       -7.5288828060        2.9402509277  CLST          33          1.0000000000
        98        33  TIP3  H1            1.2718120337       -8.1418881103        0.3903987965  CLST          33          1.0000000000
        99        33  TIP3  H2            0.5433756030      -10.4341236076        0.7407632726  CLST          33          1.0000000000
       100        34  TIP3  OH2          -7.8396165915        5.9417581434        3.3391344893  CLST          34          1.0000000000
       101        34  TIP3  H1           -9.3596113341        8.4971864542        5.8072776524  CLST          34          1.0000000000
       102        34  TIP3  H2           -8.9658581447        6.1833756004        4.0692868353  CLST          34          1.0000000000
       103        35  TIP3  OH2           7.4963309817        6.3314979117       -0.5843405329  CLST          35          1.0000000000
       104        35  TIP3  H1           14.9500000000        3.5334280614        0.4916227446  CLST          35          1.0000000000
       105        35  TIP3  H2            7.4223836427        6.2909322159       -0.3754254934  CLST          35          1.0000000000
       106        36  TIP3  OH2           9.7093915200        3.9201419517        7.1267834327  CLST          36          1.0000000000
       107        36  TIP3  H1            9.7958772086        4.4013163797        7.7308491627  CLST          36          1.0000000000
       108        36  TIP3  H2            9.6666778992        3.6223169694        4.1004063355  CLST          36          1.0000000000
       109        37  TIP3  OH2          -6.9195161691        6.3931766085       -0.7037376305  CLST          37          1.0000000000
       110        37  TIP3  H1          -10.6768938744        8.0275103745       -2.2245061548  CLST          37          1.0000000000
       111        37  TIP3  H2           -9.6517518256        7.4271174326       -3.1283724708  CLST          37          1.0000000000
       112        38  TIP3  OH2          -8.9799248738        8.6812179750       -2.7034953234  CLST          38          1.0000000000
       113        38  TIP3  H1           -8.8550311655        8.5770834453       -2.0013247381  CLST          38          1.0000000000
       114        38  TIP3  H2          -11.4299941858       11.2348593100       -3.9314799356  CLST          38          1.0000000000
       115        39  TIP3  OH2          -5.2624294549       -8.0164921894      -13.1030316904  CLST          39          1.0000000000
       116        39  TIP3  H1           -3.8697880020       -9.9960781487      -10.2423942517  CLST          39          1.0000000000
       117        39  TIP3  H2           -5.7180326652       -7.0621892460      -13.1232961966  CLST          39          1.0000000000
       118        40  TIP3  OH2          -4.0250474547        9.3994547988       14.9500000000  CLST          40          1.0000000000
       119        40  TIP3  H1           -3.6885976954        9.0346818496       12.8211576709  CLST          40          1.0000000000
       120        40  TIP3  H2           -4.0822239979        9.4323141758       13.7452557393  CLST          40          1.0000000000
       121        41  TIP3  OH2           0.1174902547       -6.9279442467       14.7382227451  CLST          41          1.0000000000
       122        41  TIP3  H1           -0.8678778129       -6.3921842490       14.4763742055  CLST          41          1.0000000000
       123        41  TIP3  H2           -2.9941172947      -12.5586901661        6.6217124422  CLST          41          1.0000000000
       124        42  TIP3  OH2           7.3970415306        9.7158070397       -2.2937381988  CLST          42          1.0000000000
       125        42  TIP3  H1            4.9275514960       -9.5781680401       -0.0085302194  CLST          42          1.0000000000
       126        42  TIP3  H2            5.5165130117        8.5935935253        0.1124254991  CLST          42          1.0000000000
       127        43  TIP3  OH2           4.1311065393        1.9143841524       -2.0754487243  CLST          43          1.0000000000
       128        43  TIP3  H1            4.7986651828        3.2322014193       -0.9688680594  CLST          43          1.0000000000
       129        43  TIP3  H2            3.9844200133        3.9172098857        0.2550795627  CLST          43          1.0000000000
       130        44  TIP3  OH2           0.0620093604       -4.6224085101      -11.7227173580  CLST          44          1.0000000000
       131        44  TIP3  H1            0.6196452335       -3.3968571204      -10.1360167035  CLST          44          1.0000000000
       132        44  TIP3  H2           -4.6186377140      -10.8275287467       -7.5163980846  CLST          44          1.0000000000
       133        45  TIP3  OH2           6.6223872270        5.2427938580        0.9505033981  CLST          45          1.0000000000
       134        45  TIP3  H1            5.3199098443        5.6759374246       -0.1861015741  CLST          45          1.0000000000
       135        45  TIP3  H2            9.2300976243        5.7268244351       -1.4515443367  CLST          45          1.0000000000
       136        46  TIP3  OH2         -11.2568411769        6.1011947636        3.9942657855  CLST          46          1.0000000000
       137        46  TIP3  H1          -10.8829280781        6.3753264741        2.9038498309  CLST          46          1.0000000000
       138        46  TIP3  H2          -10.3892397068        6.7687517347        0.5912003109  CLST          46          1.0000000000
       139        47  TIP3  OH2          -8.2137311194        5.8988572961        6.5949288277  CLST          47          1.0000000000
       140        47  TIP3  H1           -8.8685077905        6.3395737999        5.4888309433  CLST          47          1.0000000000
       141        47  TIP3  H2           -9.4813004085        5.6614379955        6.6146771077  CLST          47          1.0000000000
       142        48  TIP3  OH2           4.0310508098        4.7349346359       -0.1586115507  CLST          48          1.0000000000
       143        48  TIP3  H1            4.4091116276        5.2380091929        0.9678262029  CLST          48          1.0000000000
       144        48  TIP3  H2            9.5561382737        4.0451965733        0.1734150158  CLST          48          1.0000000000
       145        49  TIP3  OH2          -7.4037080388        6.9537831417       -5.4520367569  CLST          49          1.0000000000
       146        49  TIP3  H1           -6.9127038561        7.2450174629       -6.1501990295  CLST          49          1.0000000000
       147        49  TIP3  H2           -6.4994115792        7.1400712576       -7.9852856925  CLST          49          1.0000000000
       148        50  TIP3  OH2          -5.9622392508       -8.2310989723       -3.1212710880  CLST          50          1.0000000000
       149        50  TIP3  H1           -5.2443352053      -10.7379041481       -1.1477902026  CLST          50          1.0000000000
       150        50  TIP3  H2           -6.8927140850       -9.7347107808       -3.3739957839  CLST          50          1.0000000000
