* Geometry rescue: HEAT after early-abort recovery (step 0)
*
        150  EXT
         1         1  TIP3  OH2           5.1491695871        0.7420631379       -4.1570060271  CLST           1          1.0000000000
         2         1  TIP3  H1           13.4306360242        1.7456975706        6.9633409933  CLST           1          1.0000000000
         3         1  TIP3  H2            3.0672325933        2.3237693532       -0.8751005600  CLST           1          1.0000000000
         4         2  TIP3  OH2          -1.3985394347        8.9340482427      -12.3948587524  CLST           2          1.0000000000
         5         2  TIP3  H1           -0.5485389439       11.1324853887      -11.2978800567  CLST           2          1.0000000000
         6         2  TIP3  H2            0.0780592214        9.5440918121      -11.8813750517  CLST           2          1.0000000000
         7         3  TIP3  OH2           9.7500669334       -7.1455680342       -2.7252482784  CLST           3          1.0000000000
         8         3  TIP3  H1            9.8679791344       -7.9810742004       -2.4421781138  CLST           3          1.0000000000
         9         3  TIP3  H2            8.9572833414       -7.0134686342       -2.3287413166  CLST           3          1.0000000000
        10         4  TIP3  OH2           9.0072476050        3.8538436175        4.1698433083  CLST           4          1.0000000000
        11         4  TIP3  H1            8.5728335926        4.0933105775        2.1056510996  CLST           4          1.0000000000
        12         4  TIP3  H2            8.9039996396        4.9003755432        3.4256592468  CLST           4          1.0000000000
        13         5  TIP3  OH2          -4.5170493095       -9.4180853838       -1.5012157671  CLST           5          1.0000000000
        14         5  TIP3  H1           -4.7150530097      -13.6815072974       -0.2737094593  CLST           5          1.0000000000
        15         5  TIP3  H2           -4.0450461920       -8.4178749595       -1.5892810680  CLST           5          1.0000000000
        16         6  TIP3  OH2           5.0218133190        8.7202044794       -1.7029108747  CLST           6          1.0000000000
        17         6  TIP3  H1           -0.5910333076        7.8167714282        1.7656253392  CLST           6          1.0000000000
        18         6  TIP3  H2            6.8689999273        7.1157341789        1.1526705593  CLST           6          1.0000000000
        19         7  TIP3  OH2          -1.4242015500       -7.1715306463      -13.6003379972  CLST           7          1.0000000000
        20         7  TIP3  H1            1.6446434044       -0.7159939905      -12.7803479282  CLST           7          1.0000000000
        21         7  TIP3  H2           -0.5686107734       -7.3797058269      -14.9106427476  CLST           7          1.0000000000
        22         8  TIP3  OH2          -8.6618268982        6.1975466008        1.2373908132  CLST           8          1.0000000000
        23         8  TIP3  H1           -7.2580773415        5.8360483546        1.7625874361  CLST           8          1.0000000000
        24         8  TIP3  H2           -7.6338113355        5.9388328276        0.5775775619  CLST           8          1.0000000000
        25         9  TIP3  OH2          -4.0268318023       -7.0563972160       -2.1901908674  CLST           9          1.0000000000
        26         9  TIP3  H1           -4.4254535353       -6.0244497311       -2.8041896858  CLST           9          1.0000000000
        27         9  TIP3  H2           -4.9135995470       -7.6695776185       -2.8168073533  CLST           9          1.0000000000
        28        10  TIP3  OH2          -9.1183756205        6.6718980018        5.1512290214  CLST          10          1.0000000000
        29        10  TIP3  H1          -12.1639840457        5.5573693562        4.3423385342  CLST          10          1.0000000000
        30        10  TIP3  H2          -10.6426060684        5.7176856128        4.4547173569  CLST          10          1.0000000000
        31        11  TIP3  OH2          -2.9426346804       -8.6095376536      -13.3927191014  CLST          11          1.0000000000
        32        11  TIP3  H1           -2.7250435036       -9.1189013212      -13.0500884645  CLST          11          1.0000000000
        33        11  TIP3  H2           -1.9969178426       -7.3879184771      -12.8163571935  CLST          11          1.0000000000
        34        12  TIP3  OH2           3.9195401196        5.9665982562        0.3413575854  CLST          12          1.0000000000
        35        12  TIP3  H1            5.5090223998        5.1241044213        1.0742481262  CLST          12          1.0000000000
        36        12  TIP3  H2           14.0294780440       11.5476527189       -2.2834888279  CLST          12          1.0000000000
        37        13  TIP3  OH2          -5.9070753664        7.9228351127       -7.8450213006  CLST          13          1.0000000000
        38        13  TIP3  H1           -5.1462798682        7.1697677184       -9.1008108520  CLST          13          1.0000000000
        39        13  TIP3  H2           -4.8132198785        8.6401054184       -9.9251979135  CLST          13          1.0000000000
        40        14  TIP3  OH2         -11.1449544560        5.7902983371        1.8143649958  CLST          14          1.0000000000
        41        14  TIP3  H1          -10.5587123924        5.8663358097        3.0463700531  CLST          14          1.0000000000
        42        14  TIP3  H2           -8.2770137986        6.0140123040       -0.5663121222  CLST          14          1.0000000000
        43        15  TIP3  OH2          -1.0608164637       -9.2780444978       10.5698024224  CLST          15          1.0000000000
        44        15  TIP3  H1           -2.6089439138       -8.2355251712       14.9500000000  CLST          15          1.0000000000
        45        15  TIP3  H2           -1.4174492637       -9.8520521721        9.8215565563  CLST          15          1.0000000000
        46        16  TIP3  OH2          -0.4852064011       -2.6423039296      -10.3105583709  CLST          16          1.0000000000
        47        16  TIP3  H1            1.9129434304       -2.4449276953      -10.9492443510  CLST          16          1.0000000000
        48        16  TIP3  H2            0.6106322453       -1.4303255951       -9.1948989661  CLST          16          1.0000000000
        49        17  TIP3  OH2          -5.1522221752        7.6793959037      -10.1171968575  CLST          17          1.0000000000
        50        17  TIP3  H1           -4.4364825238        7.9888801670      -11.1009991405  CLST          17          1.0000000000
        51        17  TIP3  H2           -3.9247297531        8.2732708153      -12.3930010743  CLST          17          1.0000000000
        52        18  TIP3  OH2           7.4708741225      -11.3181244768       11.1939763800  CLST          18          1.0000000000
        53        18  TIP3  H1            8.2550020570      -11.5355967247       10.8134650896  CLST          18          1.0000000000
        54        18  TIP3  H2            6.8914365775      -10.8718913654       11.7125144660  CLST          18          1.0000000000
        55        19  TIP3  OH2           7.2140943479        2.3954296333       -3.3796284470  CLST          19          1.0000000000
        56        19  TIP3  H1           12.9106396938        6.8040414895       -6.0343244671  CLST          19          1.0000000000
        57        19  TIP3  H2            4.6823014008       -0.1482978883       -4.0363023081  CLST          19          1.0000000000
        58        20  TIP3  OH2           1.9306477257       -2.5338686972      -12.1189989965  CLST          20          1.0000000000
        59        20  TIP3  H1           -2.4316688663       -6.2619274251      -12.4771835531  CLST          20          1.0000000000
        60        20  TIP3  H2            4.2640313877       -3.6897398620      -13.4898249000  CLST          20          1.0000000000
        61        21  TIP3  OH2          -3.9292256167       -9.6889062756      -11.1926902338  CLST          21          1.0000000000
        62        21  TIP3  H1           -1.8459722531       -9.8060160470      -13.3892948897  CLST          21          1.0000000000
        63        21  TIP3  H2           -3.3002843570      -10.0401484572      -10.6560844425  CLST          21          1.0000000000
        64        22  TIP3  OH2           2.5863439540       -8.7584679486        0.1865275655  CLST          22          1.0000000000
        65        22  TIP3  H1            3.2547180307      -10.8964687487        2.3729968694  CLST          22          1.0000000000
        66        22  TIP3  H2            2.9665348192       -9.5628669717        1.4336591669  CLST          22          1.0000000000
        67        23  TIP3  OH2           3.4603677870      -10.0663753144        2.3719385323  CLST          23          1.0000000000
        68        23  TIP3  H1            3.9059413283       -8.7297379209        2.4584997660  CLST          23          1.0000000000
        69        23  TIP3  H2            5.2668262362      -10.1364165690        5.5233160437  CLST          23          1.0000000000
        70        24  TIP3  OH2          -7.2084527243        6.6923167393       -3.2195715756  CLST          24          1.0000000000
        71        24  TIP3  H1           -7.6992669666        6.8921709323       -4.7681503217  CLST          24          1.0000000000
        72        24  TIP3  H2           -9.1182289299        9.8679342759       -3.7278262003  CLST          24          1.0000000000
        73        25  TIP3  OH2          10.0750495185        5.0390587786        9.1788098388  CLST          25          1.0000000000
        74        25  TIP3  H1            9.7660414666        1.4698156265        4.3966858875  CLST          25          1.0000000000
        75        25  TIP3  H2            9.6782500284        4.8143942750        8.6437424412  CLST          25          1.0000000000
        76        26  TIP3  OH2           8.5955266514        4.3881739510       -1.9457482094  CLST          26          1.0000000000
        77        26  TIP3  H1            6.8006793041        1.2009756238       -3.9037646419  CLST          26          1.0000000000
        78        26  TIP3  H2            3.4469199285        0.4418576336       -1.6707312162  CLST          26          1.0000000000
        79        27  TIP3  OH2          -8.9517948499        8.5651377332       -0.2445706784  CLST          27          1.0000000000
        80        27  TIP3  H1           -8.4818097016        7.8925013504        0.1380530173  CLST          27          1.0000000000
        81        27  TIP3  H2           -6.5641701098        8.9983729235        1.5194721542  CLST          27          1.0000000000
        82        28  TIP3  OH2          -3.3169775794        8.4728166467      -11.6930230194  CLST          28          1.0000000000
        83        28  TIP3  H1           -3.4511006596        9.9528780221      -14.9500000000  CLST          28          1.0000000000
        84        28  TIP3  H2           -1.8587467616        8.4765130962      -11.7382442949  CLST          28          1.0000000000
        85        29  TIP3  OH2         -12.8155884610       -4.3705065473      -11.2488895645  CLST          29          1.0000000000
        86        29  TIP3  H1          -13.4701058245       -5.0413502063      -11.1935596891  CLST          29          1.0000000000
        87        29  TIP3  H2          -12.8313121513       -3.9011047276      -10.4343411170  CLST          29          1.0000000000
        88        30  TIP3  OH2           8.7729594528        8.0429193065       -1.8698832568  CLST          30          1.0000000000
        89        30  TIP3  H1            6.0492791878        8.3247864206       -0.9832582589  CLST          30          1.0000000000
        90        30  TIP3  H2            8.1528295535        8.3411437239       -1.5478647843  CLST          30          1.0000000000
        91        31  TIP3  OH2           8.4445284094        5.1176260225        2.2732704908  CLST          31          1.0000000000
        92        31  TIP3  H1            8.3779424760        6.0659343166        1.1769394796  CLST          31          1.0000000000
        93        31  TIP3  H2           11.6689690577        7.4172607629       -2.1722223211  CLST          31          1.0000000000
        94        32  TIP3  OH2           8.6911793309        5.9670084785        7.5213121069  CLST          32          1.0000000000
        95        32  TIP3  H1           10.4374028889        5.1420850748        9.8801101186  CLST          32          1.0000000000
        96        32  TIP3  H2            9.3798619633        5.6287010639        8.4357232433  CLST          32          1.0000000000
        97        33  TIP3  OH2           3.8567380971       -7.5788129179        2.8407038624  CLST          33          1.0000000000
        98        33  TIP3  H1            2.5995620190       -8.1080698058       -0.4793928547  CLST          33          1.0000000000
        99        33  TIP3  H2            3.6736847347       -6.9746814182        2.4359501931  CLST          33          1.0000000000
       100        34  TIP3  OH2          -7.7540037617        5.9227717126        3.5557551768  CLST          34          1.0000000000
       101        34  TIP3  H1           -8.0363579089        6.0454210191        4.1580127929  CLST          34          1.0000000000
       102        34  TIP3  H2           -8.8767956622        6.6435095356        4.1236466444  CLST          34          1.0000000000
       103        35  TIP3  OH2           7.7469225302        5.2394733701        0.7508435549  CLST          35          1.0000000000
       104        35  TIP3  H1            9.5608989209        6.0718284414       -9.6998854516  CLST          35          1.0000000000
       105        35  TIP3  H2            5.8302326642        2.4194433045       -2.6863207483  CLST          35          1.0000000000
       106        36  TIP3  OH2           9.4786238978        3.6132408668        6.4433183291  CLST          36          1.0000000000
       107        36  TIP3  H1            9.2639662228        4.7032713402        6.8716499833  CLST          36          1.0000000000
       108        36  TIP3  H2            9.1399704044        3.6211632292        5.1719042578  CLST          36          1.0000000000
       109        37  TIP3  OH2          -7.5487728328        6.3381271334       -0.6958852070  CLST          37          1.0000000000
       110        37  TIP3  H1           -7.9220171753        6.7898028671       -1.7793689052  CLST          37          1.0000000000
       111        37  TIP3  H2           -6.1462664059        6.5928797897       -5.3121119528  CLST          37          1.0000000000
       112        38  TIP3  OH2          -9.1024643034        9.1037736258       -2.9068822532  CLST          38          1.0000000000
       113        38  TIP3  H1           -8.8729944623        8.3038727421       -1.0702091872  CLST          38          1.0000000000
       114        38  TIP3  H2           -9.2135208364        8.8829152487       -1.6187681890  CLST          38          1.0000000000
       115        39  TIP3  OH2          -4.9718262332       -8.0534840594      -12.8858835423  CLST          39          1.0000000000
       116        39  TIP3  H1           -4.8988038693       -9.6639648204      -10.9581046114  CLST          39          1.0000000000
       117        39  TIP3  H2           -5.8846076248       -7.8347360480      -12.8141228096  CLST          39          1.0000000000
       118        40  TIP3  OH2          -4.2001264263        9.5535967817       14.9319258687  CLST          40          1.0000000000
       119        40  TIP3  H1           -4.6411265410        9.7517803864       13.9420942412  CLST          40          1.0000000000
       120        40  TIP3  H2           -6.3337836866        9.6897641303       14.2537767066  CLST          40          1.0000000000
       121        41  TIP3  OH2          -0.0608365334       -7.3450163882       14.4250183460  CLST          41          1.0000000000
       122        41  TIP3  H1           -0.8328381782       -8.5697122529       13.7602157049  CLST          41          1.0000000000
       123        41  TIP3  H2           -1.9541668952       -9.6025242898       11.0337277396  CLST          41          1.0000000000
       124        42  TIP3  OH2           7.0075342353        8.0905940316       -1.9024030552  CLST          42          1.0000000000
       125        42  TIP3  H1            3.3210848159       14.9500000000       -0.9965941742  CLST          42          1.0000000000
       126        42  TIP3  H2            4.8419863796        7.0569374494       -1.1969670170  CLST          42          1.0000000000
       127        43  TIP3  OH2           3.8581884565        2.5274842446       -1.4597783342  CLST          43          1.0000000000
       128        43  TIP3  H1            3.9338378772        3.6921626201       -0.7677409650  CLST          43          1.0000000000
       129        43  TIP3  H2            5.7757451181        4.9086340514       -1.9077050884  CLST          43          1.0000000000
       130        44  TIP3  OH2          -0.6330362320       -4.4623665651      -12.1562987816  CLST          44          1.0000000000
       131        44  TIP3  H1           -0.0224265689       -3.3834662859      -11.4373432055  CLST          44          1.0000000000
       132        44  TIP3  H2           -1.5558503484       -4.1044523090      -11.1486933357  CLST          44          1.0000000000
       133        45  TIP3  OH2           6.0754185008        5.6071284121        1.2392931800  CLST          45          1.0000000000
       134        45  TIP3  H1            7.2461252767        5.6379060530        1.9992249115  CLST          45          1.0000000000
       135        45  TIP3  H2           11.6727795370       10.1593628106       -4.8159626312  CLST          45          1.0000000000
       136        46  TIP3  OH2         -11.4331105019        6.0714739512        4.2735095105  CLST          46          1.0000000000
       137        46  TIP3  H1          -12.5927103522        4.9955742246        2.5908934155  CLST          46          1.0000000000
       138        46  TIP3  H2          -11.5217820948        6.1984271646        2.9342372355  CLST          46          1.0000000000
       139        47  TIP3  OH2          -8.1482227062        5.6618974155        7.1655224750  CLST          47          1.0000000000
       140        47  TIP3  H1           -8.3328064378        6.7193098101        6.4706734801  CLST          47          1.0000000000
       141        47  TIP3  H2           -7.4970312781        7.1184155197        6.9785909382  CLST          47          1.0000000000
       142        48  TIP3  OH2           3.9545480899        4.2664894875       -0.2263989306  CLST          48          1.0000000000
       143        48  TIP3  H1            7.2328231570        4.8593916909        1.4774135314  CLST          48          1.0000000000
       144        48  TIP3  H2            7.3554888098        5.4522668728       -0.3688690799  CLST          48          1.0000000000
       145        49  TIP3  OH2          -7.1618339558        6.9608558386       -5.5783176622  CLST          49          1.0000000000
       146        49  TIP3  H1           -6.3162182400        7.2312617381       -7.5905619531  CLST          49          1.0000000000
       147        49  TIP3  H2           -5.9486644164        6.3403277601       -8.3594560480  CLST          49          1.0000000000
       148        50  TIP3  OH2          -6.0049037332       -8.5607392049       -3.1130494879  CLST          50          1.0000000000
       149        50  TIP3  H1           -5.4745905601       -9.4810940975       -2.1992131949  CLST          50          1.0000000000
       150        50  TIP3  H2           -6.1074345755       -9.3794479589       -3.2652373803  CLST          50          1.0000000000
