* COORD
*
        2709  EXT
         1         1  TIP3  OH2           5.5930993058        0.8254364611       26.6137630546  CLST           1          1.0000000000
         2         1  TIP3  H1            5.1413953958        0.5547376726       27.4493848926  CLST           1          1.0000000000
         3         1  TIP3  H2            4.8708939703        0.6475628859       25.9855792798  CLST           1          1.0000000000
         4         2  TIP3  OH2          15.4502552707       27.9904545783       28.7476984194  CLST           2          1.0000000000
         5         2  TIP3  H1           14.7537418852       28.3016816940       28.1290695231  CLST           2          1.0000000000
         6         2  TIP3  H2           15.1190573733       27.1653378741       29.1374420161  CLST           2          1.0000000000
         7         3  TIP3  OH2          21.5771404792       23.6768785399       22.7466995589  CLST           3          1.0000000000
         8         3  TIP3  H1           20.8179317989       24.2600421001       22.5738798557  CLST           3          1.0000000000
         9         3  TIP3  H2           21.7636628871       23.4746359860       21.8052505466  CLST           3          1.0000000000
        10         4  TIP3  OH2          20.8771415939       26.1882670457       12.8539402705  CLST           4          1.0000000000
        11         4  TIP3  H1           20.0506350112       25.9834450495       13.1677360135  CLST           4          1.0000000000
        12         4  TIP3  H2           21.0873461738       25.7409584078       11.9601557722  CLST           4          1.0000000000
        13         5  TIP3  OH2          26.8978754705       20.1146001230       14.3722321610  CLST           5          1.0000000000
        14         5  TIP3  H1           26.6462667255       19.3752161085       15.0038869182  CLST           5          1.0000000000
        15         5  TIP3  H2           26.5474733145       19.8180342915       13.5256366987  CLST           5          1.0000000000
        16         6  TIP3  OH2          26.8125318590        9.5565189818       14.6840054929  CLST           6          1.0000000000
        17         6  TIP3  H1           27.6554181351        9.9794655421       14.3002194848  CLST           6          1.0000000000
        18         6  TIP3  H2           27.2050568378        9.3673819279       15.5391722854  CLST           6          1.0000000000
        19         7  TIP3  OH2          25.2002501468       28.9085313604        8.8220390023  CLST           7          1.0000000000
        20         7  TIP3  H1           25.5407507999       29.2763417965        8.0192775510  CLST           7          1.0000000000
        21         7  TIP3  H2           24.4773653538       28.3232788770        8.4541598239  CLST           7          1.0000000000
        22         8  TIP3  OH2          23.1407120942       25.7562502464       29.3224233398  CLST           8          1.0000000000
        23         8  TIP3  H1           22.9927855967       25.7539581777       30.2900394149  CLST           8          1.0000000000
        24         8  TIP3  H2           23.8222122012       25.0868004745       29.1965391878  CLST           8          1.0000000000
        25         9  TIP3  OH2          17.3663985227       25.1290106939        0.1298342655  CLST           9          1.0000000000
        26         9  TIP3  H1           16.5949930731       25.3679429930       -0.4498576890  CLST           9          1.0000000000
        27         9  TIP3  H2           17.5904062794       26.0453466147        0.4525114366  CLST           9          1.0000000000
        28        10  TIP3  OH2          25.9194499231        8.1152538192       21.4526797583  CLST          10          1.0000000000
        29        10  TIP3  H1           25.7033876870        9.0326360113       21.4851703514  CLST          10          1.0000000000
        30        10  TIP3  H2           26.8511365993        8.1554748446       21.5001470911  CLST          10          1.0000000000
        31        11  TIP3  OH2           5.9770353260       12.7431955563       10.7003775283  CLST          11          1.0000000000
        32        11  TIP3  H1            5.2750701360       13.3801787776       10.9510553233  CLST          11          1.0000000000
        33        11  TIP3  H2            5.4307337013       11.9568467875       10.9379846460  CLST          11          1.0000000000
        34        12  TIP3  OH2          18.6020705721       17.1794980752       27.2256547992  CLST          12          1.0000000000
        35        12  TIP3  H1           17.7555468937       17.4303846094       27.6707349184  CLST          12          1.0000000000
        36        12  TIP3  H2           18.3041471911       16.7630635744       26.4018813155  CLST          12          1.0000000000
        37        13  TIP3  OH2          29.5777421003       19.2122333790        3.1983694503  CLST          13          1.0000000000
        38        13  TIP3  H1           30.4870286091       19.1501105270        2.8006157853  CLST          13          1.0000000000
        39        13  TIP3  H2           29.7262802593       19.2118959296        4.1657932775  CLST          13          1.0000000000
        40        14  TIP3  OH2          28.6271895799        5.3016786421        7.9665723718  CLST          14          1.0000000000
        41        14  TIP3  H1           28.4630161412        5.1610474146        8.8893350354  CLST          14          1.0000000000
        42        14  TIP3  H2           29.6330137216        5.2862164207        7.8337462494  CLST          14          1.0000000000
        43        15  TIP3  OH2           1.0879108233       29.1233086230       25.6330575000  CLST          15          1.0000000000
        44        15  TIP3  H1            0.3973251219       29.4428572994       26.1816860033  CLST          15          1.0000000000
        45        15  TIP3  H2            1.1114717035       28.1961173257       25.9438797482  CLST          15          1.0000000000
        46        16  TIP3  OH2          25.5111498033       24.1462717815       13.7996055749  CLST          16          1.0000000000
        47        16  TIP3  H1           26.2428575530       23.4685894053       13.9232125571  CLST          16          1.0000000000
        48        16  TIP3  H2           24.8869440788       23.9278965725       14.5389319990  CLST          16          1.0000000000
        49        17  TIP3  OH2           8.4742930879       29.8366126162        2.4555011800  CLST          17          1.0000000000
        50        17  TIP3  H1            7.8910985158       29.1498656236        2.8970015577  CLST          17          1.0000000000
        51        17  TIP3  H2            9.0344520788       29.2469502077        1.8941953113  CLST          17          1.0000000000
        52        18  TIP3  OH2           2.6471104018       22.0675707293       21.6629448275  CLST          18          1.0000000000
        53        18  TIP3  H1            3.1566761438       22.8776551184       21.7012983507  CLST          18          1.0000000000
        54        18  TIP3  H2            2.7166870231       21.8488254005       22.6376159691  CLST          18          1.0000000000
        55        19  TIP3  OH2           6.9789772098        7.6952476757       14.5883497983  CLST          19          1.0000000000
        56        19  TIP3  H1            7.5887273091        6.9936056065       14.9640749920  CLST          19          1.0000000000
        57        19  TIP3  H2            7.0529548271        8.1857486029       15.3924514456  CLST          19          1.0000000000
        58        20  TIP3  OH2           4.0067677449        9.4868320183        8.9887200722  CLST          20          1.0000000000
        59        20  TIP3  H1            3.2984714908       10.0157221370        8.6236097562  CLST          20          1.0000000000
        60        20  TIP3  H2            3.7382453193        8.6701894493        8.5800748132  CLST          20          1.0000000000
        61        21  TIP3  OH2           0.6119564508       21.9081894019        1.1674379572  CLST          21          1.0000000000
        62        21  TIP3  H1            0.4564839595       22.1238638720        2.0427703669  CLST          21          1.0000000000
        63        21  TIP3  H2           -0.3182223981       21.5386243076        1.0324446515  CLST          21          1.0000000000
        64        22  TIP3  OH2          11.5121429962       20.7730344485       10.3575202020  CLST          22          1.0000000000
        65        22  TIP3  H1           11.3626271219       21.2944467489        9.5191156060  CLST          22          1.0000000000
        66        22  TIP3  H2           10.7070058589       20.2341087808       10.4054789181  CLST          22          1.0000000000
        67        23  TIP3  OH2          12.0736140360       15.3842638016       19.3720299167  CLST          23          1.0000000000
        68        23  TIP3  H1           11.7027165870       14.7128354711       20.0077099908  CLST          23          1.0000000000
        69        23  TIP3  H2           12.8944104328       15.7221393878       19.8029314986  CLST          23          1.0000000000
        70        24  TIP3  OH2          12.9584290803       23.0411483475       15.2648417096  CLST          24          1.0000000000
        71        24  TIP3  H1           12.7618400893       22.6765719160       14.4472670446  CLST          24          1.0000000000
        72        24  TIP3  H2           12.0282661254       23.2572053695       15.5744534050  CLST          24          1.0000000000
        73        25  TIP3  OH2          30.3895408608       24.6464527474        5.6035614742  CLST          25          1.0000000000
        74        25  TIP3  H1           29.9967237954       25.0496926157        4.8112962423  CLST          25          1.0000000000
        75        25  TIP3  H2           30.3008788424       23.7299206464        5.3480634121  CLST          25          1.0000000000
        76        26  TIP3  OH2          24.6257743239       24.8214991351       22.3976718480  CLST          26          1.0000000000
        77        26  TIP3  H1           23.8852320202       24.2797613084       22.0295716284  CLST          26          1.0000000000
        78        26  TIP3  H2           25.3898399759       24.6104532543       21.8482525290  CLST          26          1.0000000000
        79        27  TIP3  OH2           4.1295734970       12.2107179730       29.4019619217  CLST          27          1.0000000000
        80        27  TIP3  H1            4.8997608624       12.0169383115       29.9031804372  CLST          27          1.0000000000
        81        27  TIP3  H2            4.0250792009       13.1716375820       29.5826832375  CLST          27          1.0000000000
        82        28  TIP3  OH2          25.2075525788       23.9904362014        6.6883360429  CLST          28          1.0000000000
        83        28  TIP3  H1           26.1964028362       24.0904562781        6.6930280746  CLST          28          1.0000000000
        84        28  TIP3  H2           25.0640097638       23.5742299899        5.8652457277  CLST          28          1.0000000000
        85        29  TIP3  OH2           4.2069012661       20.1540477272       13.1325224490  CLST          29          1.0000000000
        86        29  TIP3  H1            5.1191714225       20.5974978800       13.2241899572  CLST          29          1.0000000000
        87        29  TIP3  H2            3.5608607538       20.8687643521       13.1679530318  CLST          29          1.0000000000
        88        30  TIP3  OH2          29.3192272553       26.7657335933       11.9099611932  CLST          30          1.0000000000
        89        30  TIP3  H1           29.2030760765       26.0333907950       12.4942010306  CLST          30          1.0000000000
        90        30  TIP3  H2           29.7481613857       27.4216892276       12.4980582798  CLST          30          1.0000000000
        91        31  TIP3  OH2          24.7374190596       20.1338521528       20.5017890368  CLST          31          1.0000000000
        92        31  TIP3  H1           23.7795843365       20.3137654174       20.6852684320  CLST          31          1.0000000000
        93        31  TIP3  H2           25.0775336950       20.9937951309       20.7581184660  CLST          31          1.0000000000
        94        32  TIP3  OH2           4.4125871366        6.3852562811       15.0143645669  CLST          32          1.0000000000
        95        32  TIP3  H1            5.0964502587        7.0165234584       14.6215447583  CLST          32          1.0000000000
        96        32  TIP3  H2            3.6012255833        6.5690057599       14.5584288901  CLST          32          1.0000000000
        97        33  TIP3  OH2           1.6980846330       25.1333806291       11.9816881072  CLST          33          1.0000000000
        98        33  TIP3  H1            1.9703554680       25.8520162681       12.5678357854  CLST          33          1.0000000000
        99        33  TIP3  H2            1.7982559473       25.5542577886       11.1468280344  CLST          33          1.0000000000
       100        34  TIP3  OH2          17.9156686402       23.5511718569        5.5606734159  CLST          34          1.0000000000
       101        34  TIP3  H1           17.7860877287       23.9442070529        4.6616754395  CLST          34          1.0000000000
       102        34  TIP3  H2           17.1257742740       23.0569195658        5.6552895750  CLST          34          1.0000000000
       103        35  TIP3  OH2          17.5674539621        9.3503834494       14.5175774662  CLST          35          1.0000000000
       104        35  TIP3  H1           17.4633749588        9.9969351882       13.7456692816  CLST          35          1.0000000000
       105        35  TIP3  H2           16.8868983315        8.7382103268       14.3969031662  CLST          35          1.0000000000
       106        36  TIP3  OH2           6.8235741065       21.5092533220       18.5240531368  CLST          36          1.0000000000
       107        36  TIP3  H1            7.4614084101       21.3629045781       19.2149505283  CLST          36          1.0000000000
       108        36  TIP3  H2            7.2384656743       20.8609459685       17.8347874258  CLST          36          1.0000000000
       109        37  TIP3  OH2          10.4743129821       18.4900738839        6.4489666131  CLST          37          1.0000000000
       110        37  TIP3  H1            9.7507479331       18.6020151477        7.1031824039  CLST          37          1.0000000000
       111        37  TIP3  H2           11.1434506227       18.1437326301        7.0706860051  CLST          37          1.0000000000
       112        38  TIP3  OH2           5.8182575864       18.2755516444       29.7535368510  CLST          38          1.0000000000
       113        38  TIP3  H1            6.5949726446       17.6195722875       29.8486431221  CLST          38          1.0000000000
       114        38  TIP3  H2            5.2551555939       17.8399602436       29.0769661984  CLST          38          1.0000000000
       115        39  TIP3  OH2          13.4296773291        6.3714111167       23.5986681137  CLST          39          1.0000000000
       116        39  TIP3  H1           13.6927619879        5.4708518608       23.4125634621  CLST          39          1.0000000000
       117        39  TIP3  H2           12.6660842717        6.3352679358       24.1125797782  CLST          39          1.0000000000
       118        40  TIP3  OH2          25.6141140118       14.3523826493       24.3231940077  CLST          40          1.0000000000
       119        40  TIP3  H1           24.8558436591       14.8336699586       24.6818949288  CLST          40          1.0000000000
       120        40  TIP3  H2           25.8142097674       13.6130096125       24.8848998259  CLST          40          1.0000000000
       121        41  TIP3  OH2          11.1690200056        5.5138900965       19.0900017198  CLST          41          1.0000000000
       122        41  TIP3  H1           10.9162612434        4.8918135939       18.3850891974  CLST          41          1.0000000000
       123        41  TIP3  H2           10.5874724577        6.2707583544       18.8831377552  CLST          41          1.0000000000
       124        42  TIP3  OH2          28.9894253203       23.3373248237       28.0799486824  CLST          42          1.0000000000
       125        42  TIP3  H1           28.4041347141       23.8499531784       27.5067351566  CLST          42          1.0000000000
       126        42  TIP3  H2           28.9608102256       22.5105243979       27.6637866832  CLST          42          1.0000000000
       127        43  TIP3  OH2           9.7637368504       19.1349247543       28.4174923596  CLST          43          1.0000000000
       128        43  TIP3  H1            9.2509721738       19.1933129715       29.1921846614  CLST          43          1.0000000000
       129        43  TIP3  H2            9.2860969196       18.4348276897       28.0286606563  CLST          43          1.0000000000
       130        44  TIP3  OH2           0.5409176611       27.1711861640        6.5824725198  CLST          44          1.0000000000
       131        44  TIP3  H1           -0.3514075501       27.2015040948        7.0482967678  CLST          44          1.0000000000
       132        44  TIP3  H2            0.5394212178       26.2028694496        6.4006925748  CLST          44          1.0000000000
       133        45  TIP3  OH2           4.8118308188       24.0509276528        9.2523223432  CLST          45          1.0000000000
       134        45  TIP3  H1            4.7065404282       25.0306640870        9.1547097941  CLST          45          1.0000000000
       135        45  TIP3  H2            4.9560202753       24.0399552430       10.2272141527  CLST          45          1.0000000000
       136        46  TIP3  OH2           7.6582789721        4.8519580992       21.9973580186  CLST          46          1.0000000000
       137        46  TIP3  H1            7.4834468470        5.3987184865       22.7507935693  CLST          46          1.0000000000
       138        46  TIP3  H2            6.8241692270        4.8290173796       21.5725740304  CLST          46          1.0000000000
       139        47  TIP3  OH2          19.4904806190       19.1930779725        3.2781033299  CLST          47          1.0000000000
       140        47  TIP3  H1           19.3342058063       19.9189791175        3.9225821474  CLST          47          1.0000000000
       141        47  TIP3  H2           19.6635686211       18.4046012553        3.7746461587  CLST          47          1.0000000000
       142        48  TIP3  OH2          16.0790782344        9.5125001498        8.7354517441  CLST          48          1.0000000000
       143        48  TIP3  H1           15.8438440357        9.7223507892        7.8451297863  CLST          48          1.0000000000
       144        48  TIP3  H2           16.4922308389       10.2602632811        9.1642640218  CLST          48          1.0000000000
       145        49  TIP3  OH2           8.6779614167       25.9614185642        4.0047201412  CLST          49          1.0000000000
       146        49  TIP3  H1            7.7717848257       25.8357325189        3.7884264717  CLST          49          1.0000000000
       147        49  TIP3  H2            9.2069390425       25.9426310756        3.2036825251  CLST          49          1.0000000000
       148        50  TIP3  OH2          11.2642125447        5.7156229317       25.1701048612  CLST          50          1.0000000000
       149        50  TIP3  H1           11.5110944220        4.8342947116       25.4163280773  CLST          50          1.0000000000
       150        50  TIP3  H2           10.4869693252        5.8788289908       25.6566765119  CLST          50          1.0000000000
       151        51  TIP3  OH2          12.9111967714       29.0307177308       19.6759040401  CLST          51          1.0000000000
       152        51  TIP3  H1           13.2245051250       28.3322997615       19.0635437866  CLST          51          1.0000000000
       153        51  TIP3  H2           12.3761373894       29.6380139219       19.1160401514  CLST          51          1.0000000000
       154        52  TIP3  OH2          28.7919239515       28.9167261015       10.3757837961  CLST          52          1.0000000000
       155        52  TIP3  H1           28.1050556952       29.3058741668       10.9054549910  CLST          52          1.0000000000
       156        52  TIP3  H2           29.0724695191       28.1388700191       10.8951765985  CLST          52          1.0000000000
       157        53  TIP3  OH2          19.3784601979       14.3640947709       23.3558307884  CLST          53          1.0000000000
       158        53  TIP3  H1           19.0834148835       15.1692684598       23.8142688060  CLST          53          1.0000000000
       159        53  TIP3  H2           20.3249554666       14.5684122462       23.2790211801  CLST          53          1.0000000000
       160        54  TIP3  OH2          16.4362041770       24.8077887808       22.1872883096  CLST          54          1.0000000000
       161        54  TIP3  H1           17.4324486936       24.8123091443       22.1817038849  CLST          54          1.0000000000
       162        54  TIP3  H2           16.2416079397       25.0949398200       21.2978558583  CLST          54          1.0000000000
       163        55  TIP3  OH2           0.4652060044        9.5985215111       19.6713029769  CLST          55          1.0000000000
       164        55  TIP3  H1            0.0023757674       10.1831914331       19.0508897398  CLST          55          1.0000000000
       165        55  TIP3  H2            0.6860627534       10.2477178473       20.3322392427  CLST          55          1.0000000000
       166        56  TIP3  OH2          28.7953228253       25.1072781819       14.1876639100  CLST          56          1.0000000000
       167        56  TIP3  H1           28.1354373002       25.6902678821       14.5628126838  CLST          56          1.0000000000
       168        56  TIP3  H2           28.2916986813       24.2608285198       14.2475340465  CLST          56          1.0000000000
       169        57  TIP3  OH2          19.9092234543       11.4128553355       28.8634263558  CLST          57          1.0000000000
       170        57  TIP3  H1           19.8311902344       12.0588829877       29.4965094694  CLST          57          1.0000000000
       171        57  TIP3  H2           18.9779305250       11.2661183488       28.7051742037  CLST          57          1.0000000000
       172        58  TIP3  OH2           9.9396206971        1.5089726015        0.1845708931  CLST          58          1.0000000000
       173        58  TIP3  H1            8.9831460873        1.2887736021        0.2835865577  CLST          58          1.0000000000
       174        58  TIP3  H2            9.8803484144        2.3976191447        0.4449923574  CLST          58          1.0000000000
       175        59  TIP3  OH2          17.1417807584       13.2728046825        5.1885982758  CLST          59          1.0000000000
       176        59  TIP3  H1           17.2755406559       13.9241281337        4.4537579989  CLST          59          1.0000000000
       177        59  TIP3  H2           17.9360583327       12.7534297799        5.1238426438  CLST          59          1.0000000000
       178        60  TIP3  OH2          26.3348851551        3.0487576389        7.0955605216  CLST          60          1.0000000000
       179        60  TIP3  H1           26.9677600888        2.4808026120        7.4629586800  CLST          60          1.0000000000
       180        60  TIP3  H2           26.7838882892        3.9153114918        7.2355487271  CLST          60          1.0000000000
       181        61  TIP3  OH2          30.6478267171       28.3719909419        0.5142708550  CLST          61          1.0000000000
       182        61  TIP3  H1           30.2916967261       29.1677952559        0.9056054286  CLST          61          1.0000000000
       183        61  TIP3  H2           29.9081740442       27.7674584053        0.6410338402  CLST          61          1.0000000000
       184        62  TIP3  OH2          26.4557345704        8.7777310023        4.5235757969  CLST          62          1.0000000000
       185        62  TIP3  H1           26.9613929269        8.1927062139        5.0828419198  CLST          62          1.0000000000
       186        62  TIP3  H2           27.1624989042        9.2718205133        4.0836622029  CLST          62          1.0000000000
       187        63  TIP3  OH2          29.8571548868        7.6906239089       27.2022400503  CLST          63          1.0000000000
       188        63  TIP3  H1           29.5169343014        8.5084352484       26.7220703667  CLST          63          1.0000000000
       189        63  TIP3  H2           29.4315632685        7.8206641846       28.0648759932  CLST          63          1.0000000000
       190        64  TIP3  OH2          16.6826949153        3.3320573013       26.8111692875  CLST          64          1.0000000000
       191        64  TIP3  H1           17.4210010001        3.9794948565       26.9612058496  CLST          64          1.0000000000
       192        64  TIP3  H2           15.9105864289        3.9036734094       26.6001447739  CLST          64          1.0000000000
       193        65  TIP3  OH2          20.9608186293       18.2397345346       18.5573469070  CLST          65          1.0000000000
       194        65  TIP3  H1           20.9083373869       17.9644127667       19.4804342321  CLST          65          1.0000000000
       195        65  TIP3  H2           20.0227426095       18.2399663201       18.3875885261  CLST          65          1.0000000000
       196        66  TIP3  OH2          13.0068099259       22.3443911843        3.7411483885  CLST          66          1.0000000000
       197        66  TIP3  H1           13.3392996280       21.6770304454        3.0709060837  CLST          66          1.0000000000
       198        66  TIP3  H2           12.5061617979       21.8074094290        4.3551869472  CLST          66          1.0000000000
       199        67  TIP3  OH2           7.4999947620       29.5321889442       24.0394544320  CLST          67          1.0000000000
       200        67  TIP3  H1            8.0913838513       29.0254274304       24.6961919869  CLST          67          1.0000000000
       201        67  TIP3  H2            8.1550653249       30.1099975662       23.5797363680  CLST          67          1.0000000000
       202        68  TIP3  OH2          23.3385850400        1.0970719828        0.8119978265  CLST          68          1.0000000000
       203        68  TIP3  H1           22.6363343702        0.5066754465        1.1029949301  CLST          68          1.0000000000
       204        68  TIP3  H2           23.1963935210        1.8458249415        1.3922017978  CLST          68          1.0000000000
       205        69  TIP3  OH2          18.6104009370       29.7372130968        7.1553857737  CLST          69          1.0000000000
       206        69  TIP3  H1           19.3490146160       29.3076363177        7.4903825027  CLST          69          1.0000000000
       207        69  TIP3  H2           18.6771574179       30.6475367786        7.4185818754  CLST          69          1.0000000000
       208        70  TIP3  OH2          28.4686868101        7.4158523282       22.0251398169  CLST          70          1.0000000000
       209        70  TIP3  H1           29.4520179800        7.1910931734       21.9833897120  CLST          70          1.0000000000
       210        70  TIP3  H2           28.5316489959        8.3336338902       22.4082589540  CLST          70          1.0000000000
       211        71  TIP3  OH2          16.7632958188       28.7426648677       24.7444490856  CLST          71          1.0000000000
       212        71  TIP3  H1           17.1468361391       28.9214368605       25.6198774128  CLST          71          1.0000000000
       213        71  TIP3  H2           16.8044795361       29.6151279243       24.3066229445  CLST          71          1.0000000000
       214        72  TIP3  OH2          11.1103331378       27.5993011252        5.0476520531  CLST          72          1.0000000000
       215        72  TIP3  H1           10.5797491781       27.6085463858        4.2507614650  CLST          72          1.0000000000
       216        72  TIP3  H2           11.4750445689       28.5382710951        4.9374474688  CLST          72          1.0000000000
       217        73  TIP3  OH2          26.7751698549       16.7144768439       23.6969358722  CLST          73          1.0000000000
       218        73  TIP3  H1           26.6105759590       17.0424126089       22.7871722304  CLST          73          1.0000000000
       219        73  TIP3  H2           26.4524997936       15.8263270497       23.5609197721  CLST          73          1.0000000000
       220        74  TIP3  OH2          25.5070332674       12.4395662365       28.9032266979  CLST          74          1.0000000000
       221        74  TIP3  H1           25.1226864851       11.6614680354       28.4507226216  CLST          74          1.0000000000
       222        74  TIP3  H2           25.0489290943       13.1026152956       28.4459268316  CLST          74          1.0000000000
       223        75  TIP3  OH2          20.6376122689        4.6773824713        5.2982203406  CLST          75          1.0000000000
       224        75  TIP3  H1           21.4964608999        5.0799797674        5.3807490501  CLST          75          1.0000000000
       225        75  TIP3  H2           20.2466635635        4.8938170318        6.1308144704  CLST          75          1.0000000000
       226        76  TIP3  OH2           8.3108821034       13.2854891310       21.1703959118  CLST          76          1.0000000000
       227        76  TIP3  H1            8.5819280657       13.6184214648       20.2427497786  CLST          76          1.0000000000
       228        76  TIP3  H2            9.1872419225       12.9389527167       21.3406773117  CLST          76          1.0000000000
       229        77  TIP3  OH2           0.4600208399       25.0146553184       24.8546353893  CLST          77          1.0000000000
       230        77  TIP3  H1            0.7845493357       25.4350358921       24.0244313417  CLST          77          1.0000000000
       231        77  TIP3  H2           -0.3501768379       24.5229235260       24.6656556828  CLST          77          1.0000000000
       232        78  TIP3  OH2          24.7270851686       22.0417232913        1.4535889213  CLST          78          1.0000000000
       233        78  TIP3  H1           25.1798932483       22.5372730533        0.7231903089  CLST          78          1.0000000000
       234        78  TIP3  H2           24.2557642663       21.2931076750        0.9894107726  CLST          78          1.0000000000
       235        79  TIP3  OH2           6.8268900081       16.0288593027       10.2665701493  CLST          79          1.0000000000
       236        79  TIP3  H1            6.4848407050       15.6790976532       11.1651808096  CLST          79          1.0000000000
       237        79  TIP3  H2            6.1051587096       16.6019937496        9.8871264796  CLST          79          1.0000000000
       238        80  TIP3  OH2           6.5435835382       -0.1836351060       17.2229274169  CLST          80          1.0000000000
       239        80  TIP3  H1            6.0855258535        0.1844362154       16.4051531131  CLST          80          1.0000000000
       240        80  TIP3  H2            7.4210318923        0.2516896729       17.2016502904  CLST          80          1.0000000000
       241        81  TIP3  OH2          23.0006005683        1.1735101545        6.0342726697  CLST          81          1.0000000000
       242        81  TIP3  H1           22.1072302931        1.4233803767        5.9346950470  CLST          81          1.0000000000
       243        81  TIP3  H2           23.3797801637        2.0380514023        6.0579746213  CLST          81          1.0000000000
       244        82  TIP3  OH2           2.0240004227       28.4129707902       10.9007451452  CLST          82          1.0000000000
       245        82  TIP3  H1            2.3320921550       29.2597303525       10.5572326398  CLST          82          1.0000000000
       246        82  TIP3  H2            2.8245798490       27.9873293290       11.3107705599  CLST          82          1.0000000000
       247        83  TIP3  OH2          10.2676924422        8.3229034122       25.3530083320  CLST          83          1.0000000000
       248        83  TIP3  H1           10.5665786179        7.7425929438       24.6625075168  CLST          83          1.0000000000
       249        83  TIP3  H2           10.7639428787        7.9746466571       26.1019982569  CLST          83          1.0000000000
       250        84  TIP3  OH2          16.7239171885        8.0770620022       29.1423939176  CLST          84          1.0000000000
       251        84  TIP3  H1           16.1331795208        7.3864264077       29.3550021464  CLST          84          1.0000000000
       252        84  TIP3  H2           17.5894525400        7.7135228817       29.3696741358  CLST          84          1.0000000000
       253        85  TIP3  OH2           2.5117098066       28.7220639463        7.7368935403  CLST          85          1.0000000000
       254        85  TIP3  H1            2.0256600722       28.3372645481        6.9906632045  CLST          85          1.0000000000
       255        85  TIP3  H2            3.2130077370       28.0224778179        7.7016958226  CLST          85          1.0000000000
       256        86  TIP3  OH2           8.0130830915       21.1055087677        9.8691854251  CLST          86          1.0000000000
       257        86  TIP3  H1            8.3224260449       22.0092210931       10.2061682826  CLST          86          1.0000000000
       258        86  TIP3  H2            7.3582853025       20.8429531148       10.5013476590  CLST          86          1.0000000000
       259        87  TIP3  OH2           0.4413233128       29.0450482446       12.8295072997  CLST          87          1.0000000000
       260        87  TIP3  H1            0.8457833675       28.8596198713       11.9487454067  CLST          87          1.0000000000
       261        87  TIP3  H2            0.4731009278       30.0626139647       12.7900072461  CLST          87          1.0000000000
       262        88  TIP3  OH2          14.3438124307       18.9406416726        8.2933777690  CLST          88          1.0000000000
       263        88  TIP3  H1           13.5501991969       18.4601756165        8.2716314955  CLST          88          1.0000000000
       264        88  TIP3  H2           14.7395728938       18.4639314579        9.0373055488  CLST          88          1.0000000000
       265        89  TIP3  OH2           6.7084647714       11.6610547999       26.3348008078  CLST          89          1.0000000000
       266        89  TIP3  H1            5.9159604020       11.8900137599       26.8040605447  CLST          89          1.0000000000
       267        89  TIP3  H2            6.9526580911       10.8022418990       26.7184855046  CLST          89          1.0000000000
       268        90  TIP3  OH2          14.5541131370       25.6368875786       29.9528937958  CLST          90          1.0000000000
       269        90  TIP3  H1           14.0724450435       25.0862490353       29.3524157216  CLST          90          1.0000000000
       270        90  TIP3  H2           14.5037423868       25.0852603615       30.7468791951  CLST          90          1.0000000000
       271        91  TIP3  OH2          11.4463798859       10.6731769875       24.5840125758  CLST          91          1.0000000000
       272        91  TIP3  H1           11.2089992454        9.7289382946       24.6975870901  CLST          91          1.0000000000
       273        91  TIP3  H2           10.7089143289       11.0993002650       25.0440396441  CLST          91          1.0000000000
       274        92  TIP3  OH2          24.0330917285        3.6545646097        8.6305372442  CLST          92          1.0000000000
       275        92  TIP3  H1           24.3511544503        3.3632523958        7.7108337374  CLST          92          1.0000000000
       276        92  TIP3  H2           23.9736177479        2.7767321592        9.0769841885  CLST          92          1.0000000000
       277        93  TIP3  OH2           5.1853040345       23.8820766147       11.9862326223  CLST          93          1.0000000000
       278        93  TIP3  H1            4.9441973965       24.5493992747       12.6187036619  CLST          93          1.0000000000
       279        93  TIP3  H2            5.9240442287       23.5334472781       12.4911371932  CLST          93          1.0000000000
       280        94  TIP3  OH2          24.1378436160       12.2268898235        4.3276612456  CLST          94          1.0000000000
       281        94  TIP3  H1           24.0396284055       11.9556182536        3.3346968154  CLST          94          1.0000000000
       282        94  TIP3  H2           24.2162559053       11.3206882849        4.7102105845  CLST          94          1.0000000000
       283        95  TIP3  OH2           6.5803407446       11.2080835922       29.9370524224  CLST          95          1.0000000000
       284        95  TIP3  H1            6.8652060343       10.6575972742       29.1502858899  CLST          95          1.0000000000
       285        95  TIP3  H2            6.3713510149       10.4510880597       30.5322939145  CLST          95          1.0000000000
       286        96  TIP3  OH2          14.7787851804       29.6955277272       12.5632328288  CLST          96          1.0000000000
       287        96  TIP3  H1           15.1763718329       28.8125095090       12.8580312385  CLST          96          1.0000000000
       288        96  TIP3  H2           14.2229723790       29.4030146662       11.8127565556  CLST          96          1.0000000000
       289        97  TIP3  OH2          21.9476383168        9.5364503826       12.9494982322  CLST          97          1.0000000000
       290        97  TIP3  H1           22.0883865850        9.1288524836       12.0359740918  CLST          97          1.0000000000
       291        97  TIP3  H2           22.9077054018        9.5491685270       13.2597592263  CLST          97          1.0000000000
       292        98  TIP3  OH2           1.6083402067        4.1981795376       13.9698139120  CLST          98          1.0000000000
       293        98  TIP3  H1            1.9880276306        4.7178912031       13.2368317848  CLST          98          1.0000000000
       294        98  TIP3  H2            2.3283791744        3.6029851440       14.0711343738  CLST          98          1.0000000000
       295        99  TIP3  OH2          17.6732026963       12.3661152710       24.7476502274  CLST          99          1.0000000000
       296        99  TIP3  H1           16.9928925576       12.4183191786       24.0217031853  CLST          99          1.0000000000
       297        99  TIP3  H2           18.3021069229       12.9408707225       24.3067736694  CLST          99          1.0000000000
       298       100  TIP3  OH2           9.2732260703       26.4409212271       23.4099275244  CLST         100          1.0000000000
       299       100  TIP3  H1            8.6095866471       26.6105210217       24.1350888961  CLST         100          1.0000000000
       300       100  TIP3  H2            9.2642859784       25.4807358160       23.3298845233  CLST         100          1.0000000000
       301       101  TIP3  OH2          11.4176295282        2.0589335942       20.0487033159  CLST         101          1.0000000000
       302       101  TIP3  H1           11.2091977030        2.8893899955       20.5429124421  CLST         101          1.0000000000
       303       101  TIP3  H2           11.7820502678        1.5647744583       20.7776533155  CLST         101          1.0000000000
       304       102  TIP3  OH2          23.1868524811        2.3953562504       17.3945108747  CLST         102          1.0000000000
       305       102  TIP3  H1           22.4837639050        1.8815499096       16.9918614913  CLST         102          1.0000000000
       306       102  TIP3  H2           22.8291044847        3.2638695073       17.5502048574  CLST         102          1.0000000000
       307       103  TIP3  OH2          25.7866930581       16.3572280562       18.8803287734  CLST         103          1.0000000000
       308       103  TIP3  H1           25.7157185593       15.4073085099       19.0633455409  CLST         103          1.0000000000
       309       103  TIP3  H2           25.1154386221       16.3628441895       18.1722119983  CLST         103          1.0000000000
       310       104  TIP3  OH2          19.2851539450       18.7348430526        7.8178736180  CLST         104          1.0000000000
       311       104  TIP3  H1           19.9050643823       19.1194712600        7.1600476592  CLST         104          1.0000000000
       312       104  TIP3  H2           19.2287750690       19.3591540323        8.5568877248  CLST         104          1.0000000000
       313       105  TIP3  OH2           4.6404527718       29.7326205028       14.4239082537  CLST         105          1.0000000000
       314       105  TIP3  H1            3.7861062512       29.2476173682       14.5838731818  CLST         105          1.0000000000
       315       105  TIP3  H2            4.7373689429       29.4350192447       13.5022321877  CLST         105          1.0000000000
       316       106  TIP3  OH2          14.0585950492       28.8846144714        4.9413954978  CLST         106          1.0000000000
       317       106  TIP3  H1           14.5446603356       29.5816129736        5.3503026655  CLST         106          1.0000000000
       318       106  TIP3  H2           13.2823825238       29.4245162298        4.6871014478  CLST         106          1.0000000000
       319       107  TIP3  OH2           1.6219888981       17.8159673497       22.9234314447  CLST         107          1.0000000000
       320       107  TIP3  H1            0.6549643844       17.8317116975       22.9986452685  CLST         107          1.0000000000
       321       107  TIP3  H2            1.8414709082       17.6599841337       23.8965547012  CLST         107          1.0000000000
       322       108  TIP3  OH2          23.4415281963       26.4671261092       14.2674506566  CLST         108          1.0000000000
       323       108  TIP3  H1           23.6730047914       25.5985067125       14.5926162724  CLST         108          1.0000000000
       324       108  TIP3  H2           22.7711597176       26.2810818441       13.6284597247  CLST         108          1.0000000000
       325       109  TIP3  OH2          26.2015390791       29.2940814560       11.4332249638  CLST         109          1.0000000000
       326       109  TIP3  H1           26.1044825219       28.3507115194       11.6776838217  CLST         109          1.0000000000
       327       109  TIP3  H2           25.9175183356       29.2735319703       10.5074635527  CLST         109          1.0000000000
       328       110  TIP3  OH2           1.2449541459       26.8535174141       26.9632279437  CLST         110          1.0000000000
       329       110  TIP3  H1            1.1133421965       26.1744045408       26.2742934193  CLST         110          1.0000000000
       330       110  TIP3  H2            0.4237719383       26.6970091202       27.4525716847  CLST         110          1.0000000000
       331       111  TIP3  OH2          25.2310442969       29.2419306258       23.9980221482  CLST         111          1.0000000000
       332       111  TIP3  H1           25.5123459226       29.8914054151       23.3204866114  CLST         111          1.0000000000
       333       111  TIP3  H2           25.8188343152       28.4647798582       23.7556783711  CLST         111          1.0000000000
       334       112  TIP3  OH2           2.2193197400       18.0969448468       25.8210553139  CLST         112          1.0000000000
       335       112  TIP3  H1            1.9562514710       17.8269676134       26.7396462813  CLST         112          1.0000000000
       336       112  TIP3  H2            1.9419242171       19.0034867143       25.8804198922  CLST         112          1.0000000000
       337       113  TIP3  OH2          14.1926652028        6.0388405918       12.5709611068  CLST         113          1.0000000000
       338       113  TIP3  H1           14.3389497927        6.9019722335       12.1072685672  CLST         113          1.0000000000
       339       113  TIP3  H2           14.6375133879        5.4627087759       11.9074432549  CLST         113          1.0000000000
       340       114  TIP3  OH2          25.4891833601       18.9343023001       25.6792383267  CLST         114          1.0000000000
       341       114  TIP3  H1           25.7416229146       19.7293239374       25.1996524754  CLST         114          1.0000000000
       342       114  TIP3  H2           26.1308710151       18.3613272400       25.3155363857  CLST         114          1.0000000000
       343       115  TIP3  OH2           4.6281788297       16.3540918832       21.2117559910  CLST         115          1.0000000000
       344       115  TIP3  H1            4.4471921988       15.6708632307       20.5827771399  CLST         115          1.0000000000
       345       115  TIP3  H2            4.5423220670       17.1016514011       20.6958664719  CLST         115          1.0000000000
       346       116  TIP3  OH2           8.2452914482        5.6982569770       16.0346303692  CLST         116          1.0000000000
       347       116  TIP3  H1            9.0977033145        5.5262324229       16.4058040470  CLST         116          1.0000000000
       348       116  TIP3  H2            7.7984321892        4.8250137697       16.1251735704  CLST         116          1.0000000000
       349       117  TIP3  OH2           0.1168842408        1.4375936709       13.1330300622  CLST         117          1.0000000000
       350       117  TIP3  H1           -0.5794960907        1.6087421567       13.8040729477  CLST         117          1.0000000000
       351       117  TIP3  H2            0.7625757976        2.0534915497       13.4468999627  CLST         117          1.0000000000
       352       118  TIP3  OH2          12.8465406783       20.7275596813       23.4489322768  CLST         118          1.0000000000
       353       118  TIP3  H1           12.5710432439       20.6467852944       24.3749036042  CLST         118          1.0000000000
       354       118  TIP3  H2           13.1541368525       21.6065395321       23.5035258035  CLST         118          1.0000000000
       355       119  TIP3  OH2          18.4730644620       28.8460004122        4.4422766277  CLST         119          1.0000000000
       356       119  TIP3  H1           19.3878049211       29.1266879662        4.2865559954  CLST         119          1.0000000000
       357       119  TIP3  H2           18.3125935101       29.0353453214        5.3995922716  CLST         119          1.0000000000
       358       120  TIP3  OH2          18.6462799262        4.0892742490       22.4866039657  CLST         120          1.0000000000
       359       120  TIP3  H1           18.3322065731        4.5601313470       21.6826731824  CLST         120          1.0000000000
       360       120  TIP3  H2           17.7960135261        3.9090368668       22.9312511583  CLST         120          1.0000000000
       361       121  TIP3  OH2          24.4021687591       23.3882667888        3.9863559790  CLST         121          1.0000000000
       362       121  TIP3  H1           24.6648275402       23.1177424780        3.0910304005  CLST         121          1.0000000000
       363       121  TIP3  H2           23.4945958967       23.5943456903        3.7869394524  CLST         121          1.0000000000
       364       122  TIP3  OH2           9.2533721994       23.2399498963       23.6247015271  CLST         122          1.0000000000
       365       122  TIP3  H1            9.1779999006       22.2716764409       23.7529773139  CLST         122          1.0000000000
       366       122  TIP3  H2           10.1165428863       23.1930287339       23.1084698005  CLST         122          1.0000000000
       367       123  TIP3  OH2          23.3753488286       19.8909916543        0.3007559176  CLST         123          1.0000000000
       368       123  TIP3  H1           23.3526142235       19.7158814386       -0.6553948509  CLST         123          1.0000000000
       369       123  TIP3  H2           22.5771750499       20.4096796917        0.5776479005  CLST         123          1.0000000000
       370       124  TIP3  OH2          17.2764045142       28.2054984578       20.4566918597  CLST         124          1.0000000000
       371       124  TIP3  H1           16.5297064604       28.3347880787       21.0080531048  CLST         124          1.0000000000
       372       124  TIP3  H2           16.9701195278       27.3726685703       19.9329210169  CLST         124          1.0000000000
       373       125  TIP3  OH2           6.6838880579        2.7408613641       25.0360285713  CLST         125          1.0000000000
       374       125  TIP3  H1            6.3491361136        2.0867422575       25.7056663516  CLST         125          1.0000000000
       375       125  TIP3  H2            6.0406690374        2.5773950236       24.3183855013  CLST         125          1.0000000000
       376       126  TIP3  OH2          12.3492756280       20.5076262748        5.5740052532  CLST         126          1.0000000000
       377       126  TIP3  H1           12.2290392824       19.8930065275        4.8581706509  CLST         126          1.0000000000
       378       126  TIP3  H2           12.4568417434       19.9435562822        6.3385243458  CLST         126          1.0000000000
       379       127  TIP3  OH2          19.8921166399       24.3688536243       25.2180189848  CLST         127          1.0000000000
       380       127  TIP3  H1           20.2593563714       25.0523306898       25.7922890643  CLST         127          1.0000000000
       381       127  TIP3  H2           20.5149964320       23.6978123341       25.4812019231  CLST         127          1.0000000000
       382       128  TIP3  OH2          23.9301290528       26.7342069241        7.0808966459  CLST         128          1.0000000000
       383       128  TIP3  H1           24.4054179434       25.8549246957        7.2453986462  CLST         128          1.0000000000
       384       128  TIP3  H2           23.9888931600       27.0066707464        6.1309117718  CLST         128          1.0000000000
       385       129  TIP3  OH2          18.3586825426       15.8186343845       19.5983602026  CLST         129          1.0000000000
       386       129  TIP3  H1           19.1841610277       16.3197847072       19.7798323349  CLST         129          1.0000000000
       387       129  TIP3  H2           17.7254617272       15.8817808351       20.3089788377  CLST         129          1.0000000000
       388       130  TIP3  OH2           8.9169764894       29.0724779591       14.3018593936  CLST         130          1.0000000000
       389       130  TIP3  H1            9.1892981736       28.7030852635       15.1549000600  CLST         130          1.0000000000
       390       130  TIP3  H2            8.0796093641       29.5367952160       14.5130433729  CLST         130          1.0000000000
       391       131  TIP3  OH2          20.5643737346       19.1191750872       29.1583523153  CLST         131          1.0000000000
       392       131  TIP3  H1           21.1513033400       18.6734223493       29.7770773460  CLST         131          1.0000000000
       393       131  TIP3  H2           19.7317185342       19.0868065191       29.6719483136  CLST         131          1.0000000000
       394       132  TIP3  OH2           9.2702823933       27.8541312761        9.3748957960  CLST         132          1.0000000000
       395       132  TIP3  H1            9.9937961758       27.9668872324        8.6761217785  CLST         132          1.0000000000
       396       132  TIP3  H2            9.4942443309       28.5699928559        9.9830785859  CLST         132          1.0000000000
       397       133  TIP3  OH2          20.7961408917       22.4332959472        7.6339795849  CLST         133          1.0000000000
       398       133  TIP3  H1           21.3832594252       21.7575307083        8.0048491810  CLST         133          1.0000000000
       399       133  TIP3  H2           21.4198881216       22.9403235755        7.1536267539  CLST         133          1.0000000000
       400       134  TIP3  OH2          21.4488419403       17.9260669004       14.6612139454  CLST         134          1.0000000000
       401       134  TIP3  H1           20.7919561711       17.9556587158       13.9983250593  CLST         134          1.0000000000
       402       134  TIP3  H2           21.4758843754       18.8695976224       14.9239272918  CLST         134          1.0000000000
       403       135  TIP3  OH2          21.3385184855       10.9797390226        3.3344813613  CLST         135          1.0000000000
       404       135  TIP3  H1           21.2080911472       10.4755682195        2.5274255808  CLST         135          1.0000000000
       405       135  TIP3  H2           22.3115781576       11.0434246195        3.5147419577  CLST         135          1.0000000000
       406       136  TIP3  OH2          25.1946914553       13.2815943651       18.6798835587  CLST         136          1.0000000000
       407       136  TIP3  H1           25.1316408726       13.1846708490       19.6311932124  CLST         136          1.0000000000
       408       136  TIP3  H2           24.3730239872       13.8409410239       18.5203337683  CLST         136          1.0000000000
       409       137  TIP3  OH2          24.5142658208       19.1764598180        7.6636896593  CLST         137          1.0000000000
       410       137  TIP3  H1           24.7845230408       19.5514370902        6.7740914496  CLST         137          1.0000000000
       411       137  TIP3  H2           25.3064683424       18.6161090407        7.8924060305  CLST         137          1.0000000000
       412       138  TIP3  OH2          10.0501431797        8.4986136181       11.1272210394  CLST         138          1.0000000000
       413       138  TIP3  H1           10.0413316996        7.7533415314       11.7705593916  CLST         138          1.0000000000
       414       138  TIP3  H2           10.7488944687        9.1317237737       11.4270070000  CLST         138          1.0000000000
       415       139  TIP3  OH2           2.1022501298        9.7834393956       12.5088452610  CLST         139          1.0000000000
       416       139  TIP3  H1            3.0577803386        9.9375146813       12.3300979104  CLST         139          1.0000000000
       417       139  TIP3  H2            2.1486289299        9.1388988144       13.2513662530  CLST         139          1.0000000000
       418       140  TIP3  OH2          27.2905593062       28.8820494789       22.3351969934  CLST         140          1.0000000000
       419       140  TIP3  H1           27.7901567109       29.6282650164       22.6569862478  CLST         140          1.0000000000
       420       140  TIP3  H2           27.8535614789       28.1437159014       22.5172997805  CLST         140          1.0000000000
       421       141  TIP3  OH2          17.2949817334        5.4459408929       12.6649327950  CLST         141          1.0000000000
       422       141  TIP3  H1           17.7461843734        6.2638122153       12.5615231394  CLST         141          1.0000000000
       423       141  TIP3  H2           17.5707297603        5.0669142219       13.5492083496  CLST         141          1.0000000000
       424       142  TIP3  OH2          14.9535707928       23.6619268629        5.1779716016  CLST         142          1.0000000000
       425       142  TIP3  H1           14.0152739314       23.5360041075        4.8000001183  CLST         142          1.0000000000
       426       142  TIP3  H2           15.0009960163       22.8511761341        5.6195133216  CLST         142          1.0000000000
       427       143  TIP3  OH2           6.5774541701       23.4357118784        1.9443616950  CLST         143          1.0000000000
       428       143  TIP3  H1            6.9934328393       23.4047080443        1.0837814631  CLST         143          1.0000000000
       429       143  TIP3  H2            5.6761299069       23.2715680752        1.7041841720  CLST         143          1.0000000000
       430       144  TIP3  OH2          28.7585088426       16.2835281759        7.7747713962  CLST         144          1.0000000000
       431       144  TIP3  H1           28.9829424239       16.3612341692        6.8151182992  CLST         144          1.0000000000
       432       144  TIP3  H2           29.3092074189       15.4903560844        8.0539969169  CLST         144          1.0000000000
       433       145  TIP3  OH2           1.9031984509        7.1970197691       13.9525250037  CLST         145          1.0000000000
       434       145  TIP3  H1            0.9547458827        7.3169975927       13.8019717397  CLST         145          1.0000000000
       435       145  TIP3  H2            2.1327388512        6.7009350655       13.1351976611  CLST         145          1.0000000000
       436       146  TIP3  OH2          24.4383844830       10.5903173567       21.8613978250  CLST         146          1.0000000000
       437       146  TIP3  H1           24.5969691015       11.5197328543       21.9759504628  CLST         146          1.0000000000
       438       146  TIP3  H2           23.4793312690       10.6063012290       21.9760664232  CLST         146          1.0000000000
       439       147  TIP3  OH2           0.8921445802        2.8769673140       25.8354831116  CLST         147          1.0000000000
       440       147  TIP3  H1            0.2965545700        3.2362053596       26.5726592660  CLST         147          1.0000000000
       441       147  TIP3  H2            0.5142615832        3.3382759916       25.0189560875  CLST         147          1.0000000000
       442       148  TIP3  OH2           7.4536674977        6.5509550454       26.9245694865  CLST         148          1.0000000000
       443       148  TIP3  H1            7.8204518269        5.6955851389       26.6900587735  CLST         148          1.0000000000
       444       148  TIP3  H2            6.6670776068        6.3701371614       27.5458767156  CLST         148          1.0000000000
       445       149  TIP3  OH2          26.1694244482       17.1311503146       11.3615799222  CLST         149          1.0000000000
       446       149  TIP3  H1           26.5647701356       17.9757230402       11.4298002957  CLST         149          1.0000000000
       447       149  TIP3  H2           26.8135855213       16.5150363439       11.6915147407  CLST         149          1.0000000000
       448       150  TIP3  OH2          10.6651317342        1.2174513988       27.8679630759  CLST         150          1.0000000000
       449       150  TIP3  H1           10.7377351722        1.1884971684       28.8323908740  CLST         150          1.0000000000
       450       150  TIP3  H2            9.7489404135        0.9721188664       27.8077726881  CLST         150          1.0000000000
       451       151  TIP3  OH2           3.8194043064       18.0729428862        3.9514638023  CLST         151          1.0000000000
       452       151  TIP3  H1            3.9599701407       17.2458753007        3.5105717281  CLST         151          1.0000000000
       453       151  TIP3  H2            3.2734450767       18.6328022245        3.3071809401  CLST         151          1.0000000000
       454       152  TIP3  OH2           0.5881104597        6.0946804979       24.3347093523  CLST         152          1.0000000000
       455       152  TIP3  H1            0.6343276132        7.0788410450       24.2025122889  CLST         152          1.0000000000
       456       152  TIP3  H2            1.4031321095        5.7799920080       23.9060769706  CLST         152          1.0000000000
       457       153  TIP3  OH2          28.8070318635       10.0503811536       22.6283800563  CLST         153          1.0000000000
       458       153  TIP3  H1           28.6014652619       10.9104295248       22.9628518034  CLST         153          1.0000000000
       459       153  TIP3  H2           29.1337269889       10.2072907271       21.7230907271  CLST         153          1.0000000000
       460       154  TIP3  OH2          18.2329649336       22.5988560805       29.8412231117  CLST         154          1.0000000000
       461       154  TIP3  H1           17.5997774945       23.3166507756       29.9505363387  CLST         154          1.0000000000
       462       154  TIP3  H2           19.0717266485       23.0965916007       29.8480431749  CLST         154          1.0000000000
       463       155  TIP3  OH2          10.5351540021       25.1808352504       14.4240318722  CLST         155          1.0000000000
       464       155  TIP3  H1           11.0793244952       25.9290678872       14.6761722302  CLST         155          1.0000000000
       465       155  TIP3  H2           10.6795792734       25.1744784573       13.4765077204  CLST         155          1.0000000000
       466       156  TIP3  OH2          14.1153026629        2.0887359548       30.2916111452  CLST         156          1.0000000000
       467       156  TIP3  H1           14.7158399912        1.4066811973       30.6778090488  CLST         156          1.0000000000
       468       156  TIP3  H2           13.7351717031        1.5947821493       29.5554003117  CLST         156          1.0000000000
       469       157  TIP3  OH2           0.1683532023       25.2724164709       21.7453975757  CLST         157          1.0000000000
       470       157  TIP3  H1            0.8341479308       25.9701296789       21.5479208775  CLST         157          1.0000000000
       471       157  TIP3  H2            0.5270735791       24.4761972066       21.2768465958  CLST         157          1.0000000000
       472       158  TIP3  OH2          23.3901852551       28.6561824551       28.1826532906  CLST         158          1.0000000000
       473       158  TIP3  H1           22.5880832588       28.5945396827       27.7590312598  CLST         158          1.0000000000
       474       158  TIP3  H2           23.7462076869       27.8671028921       27.7269258034  CLST         158          1.0000000000
       475       159  TIP3  OH2           8.2458640827       18.7421008650        8.0413759996  CLST         159          1.0000000000
       476       159  TIP3  H1            7.4422782615       18.9189834484        7.4975247257  CLST         159          1.0000000000
       477       159  TIP3  H2            8.3136007355       19.6249111517        8.5222944215  CLST         159          1.0000000000
       478       160  TIP3  OH2           4.5308706264       21.0418450103        2.0091541618  CLST         160          1.0000000000
       479       160  TIP3  H1            4.2257406238       21.4532355762        2.7921458235  CLST         160          1.0000000000
       480       160  TIP3  H2            5.1166008627       20.4550513539        2.4760484543  CLST         160          1.0000000000
       481       161  TIP3  OH2           3.7503645837       23.2336502179       27.3384485634  CLST         161          1.0000000000
       482       161  TIP3  H1            4.5389682090       22.7957495141       27.7682797662  CLST         161          1.0000000000
       483       161  TIP3  H2            2.9968172307       23.0591346275       27.9475962045  CLST         161          1.0000000000
       484       162  TIP3  OH2           6.5919430109       19.6997500570        3.0624173017  CLST         162          1.0000000000
       485       162  TIP3  H1            6.9984378368       18.8138681778        3.0557524070  CLST         162          1.0000000000
       486       162  TIP3  H2            7.3860917966       20.2684670139        3.0740178053  CLST         162          1.0000000000
       487       163  TIP3  OH2          16.9112691841        0.2070231540        2.8364060017  CLST         163          1.0000000000
       488       163  TIP3  H1           16.8632046263        1.0824028577        3.2504491985  CLST         163          1.0000000000
       489       163  TIP3  H2           17.2042837145       -0.3274309377        3.6206861993  CLST         163          1.0000000000
       490       164  TIP3  OH2           8.4390749043        3.0415734078       10.1393108346  CLST         164          1.0000000000
       491       164  TIP3  H1            8.6908815010        3.8108475351        9.5558553652  CLST         164          1.0000000000
       492       164  TIP3  H2            9.3062489384        2.6154750049       10.2168072167  CLST         164          1.0000000000
       493       165  TIP3  OH2          14.1634492801        3.7089459562        5.0107479303  CLST         165          1.0000000000
       494       165  TIP3  H1           13.4360734488        4.3773539917        5.0338699740  CLST         165          1.0000000000
       495       165  TIP3  H2           13.8213249948        3.1083623182        4.3835661959  CLST         165          1.0000000000
       496       166  TIP3  OH2          23.8689467768       17.4622644411        5.1367898421  CLST         166          1.0000000000
       497       166  TIP3  H1           23.5502968789       18.0962912861        4.4035684557  CLST         166          1.0000000000
       498       166  TIP3  H2           23.8773745656       18.0472429664        5.8774761363  CLST         166          1.0000000000
       499       167  TIP3  OH2           0.0374104816       22.5431004355       20.9556269970  CLST         167          1.0000000000
       500       167  TIP3  H1            0.0580593030       22.4573831196       19.9657308819  CLST         167          1.0000000000
       501       167  TIP3  H2            0.9044921085       22.5778001502       21.3256686060  CLST         167          1.0000000000
       502       168  TIP3  OH2          27.6744614937       27.7456578173        1.5712663683  CLST         168          1.0000000000
       503       168  TIP3  H1           27.0012424722       27.1808571683        2.0944973832  CLST         168          1.0000000000
       504       168  TIP3  H2           27.6974391319       27.1515696754        0.7745902243  CLST         168          1.0000000000
       505       169  TIP3  OH2           0.8441234493       12.1111544342       12.7992459725  CLST         169          1.0000000000
       506       169  TIP3  H1            1.4592200785       11.3064533982       12.7231615432  CLST         169          1.0000000000
       507       169  TIP3  H2            1.4061604567       12.7211524276       13.2278767951  CLST         169          1.0000000000
       508       170  TIP3  OH2          15.7153931199       17.9019769864        4.9347979611  CLST         170          1.0000000000
       509       170  TIP3  H1           16.4468140713       17.7642103526        5.5653319077  CLST         170          1.0000000000
       510       170  TIP3  H2           15.1174098021       18.5926275981        5.3016944591  CLST         170          1.0000000000
       511       171  TIP3  OH2          20.6535208467        2.5421773112        2.5599503440  CLST         171          1.0000000000
       512       171  TIP3  H1           21.6139717523        2.7932197985        2.6572306933  CLST         171          1.0000000000
       513       171  TIP3  H2           20.5135088737        2.1035965423        3.4183689898  CLST         171          1.0000000000
       514       172  TIP3  OH2          13.8902552875       23.2633902036       18.6087326995  CLST         172          1.0000000000
       515       172  TIP3  H1           13.8571401878       23.0963800951       19.5329336611  CLST         172          1.0000000000
       516       172  TIP3  H2           13.2356471476       22.6190407181       18.3271639300  CLST         172          1.0000000000
       517       173  TIP3  OH2          17.4507070928       24.8343619350        2.8724611117  CLST         173          1.0000000000
       518       173  TIP3  H1           16.8865469069       25.6663611873        3.0257799894  CLST         173          1.0000000000
       519       173  TIP3  H2           17.4703419232       24.7903486448        1.9177769270  CLST         173          1.0000000000
       520       174  TIP3  OH2           5.6079527199       16.1784870794        5.8489373668  CLST         174          1.0000000000
       521       174  TIP3  H1            5.2378835430       15.8101213774        6.7133500614  CLST         174          1.0000000000
       522       174  TIP3  H2            4.8654838912       16.3652235278        5.3191777456  CLST         174          1.0000000000
       523       175  TIP3  OH2           4.2612623933       26.7331027878        7.6564221732  CLST         175          1.0000000000
       524       175  TIP3  H1            3.6251815284       26.0937623578        7.2889714917  CLST         175          1.0000000000
       525       175  TIP3  H2            4.9645087827       26.5415685797        7.0364544298  CLST         175          1.0000000000
       526       176  TIP3  OH2           8.3218150464        2.7593008437       19.4616552853  CLST         176          1.0000000000
       527       176  TIP3  H1            8.2518831199        2.1793295772       20.2111170419  CLST         176          1.0000000000
       528       176  TIP3  H2            9.0419129960        2.2471683478       18.9791256461  CLST         176          1.0000000000
       529       177  TIP3  OH2          26.0948335311       10.8925116722        7.1313368234  CLST         177          1.0000000000
       530       177  TIP3  H1           26.8910282449       10.9012348653        6.5421958699  CLST         177          1.0000000000
       531       177  TIP3  H2           25.6582651714       10.0087538460        6.8656860227  CLST         177          1.0000000000
       532       178  TIP3  OH2           4.0815655358       23.7685689319        0.8121966134  CLST         178          1.0000000000
       533       178  TIP3  H1            3.5272590411       24.4937750240        0.3745853074  CLST         178          1.0000000000
       534       178  TIP3  H2            4.0224965163       22.9914506642        0.2198158086  CLST         178          1.0000000000
       535       179  TIP3  OH2           2.7417017808       20.3399502659        0.1863933815  CLST         179          1.0000000000
       536       179  TIP3  H1            1.9001760002       20.5494794924        0.7045800642  CLST         179          1.0000000000
       537       179  TIP3  H2            3.3853103999       20.7359195047        0.9001332305  CLST         179          1.0000000000
       538       180  TIP3  OH2          28.4431604249       26.7224753102        8.2428010376  CLST         180          1.0000000000
       539       180  TIP3  H1           28.5210460910       27.2863607531        9.0632976939  CLST         180          1.0000000000
       540       180  TIP3  H2           27.7412941127       27.1610923350        7.7623780500  CLST         180          1.0000000000
       541       181  TIP3  OH2          18.2708248911       30.3752483182       19.0263326562  CLST         181          1.0000000000
       542       181  TIP3  H1           19.2070001740       30.5569079878       19.1909152263  CLST         181          1.0000000000
       543       181  TIP3  H2           18.1867656921       29.5227854979       19.4803920531  CLST         181          1.0000000000
       544       182  TIP3  OH2          19.8578323453       17.5225299219        5.2309157470  CLST         182          1.0000000000
       545       182  TIP3  H1           19.3383704473       17.3260274021        6.0012779694  CLST         182          1.0000000000
       546       182  TIP3  H2           20.6134800353       17.8554709411        5.7446079295  CLST         182          1.0000000000
       547       183  TIP3  OH2          11.7096267471        5.6253451678        4.5037931681  CLST         183          1.0000000000
       548       183  TIP3  H1           11.7498029624        5.4969916167        3.5324079349  CLST         183          1.0000000000
       549       183  TIP3  H2           11.0440787433        6.3800168324        4.6083658024  CLST         183          1.0000000000
       550       184  TIP3  OH2          30.1219755831       29.5222759679        7.9682954608  CLST         184          1.0000000000
       551       184  TIP3  H1           30.8506223186       28.8764158643        7.6726748524  CLST         184          1.0000000000
       552       184  TIP3  H2           29.6346437033       29.0197974467        8.6378509287  CLST         184          1.0000000000
       553       185  TIP3  OH2           9.2517043304       12.8514394521       26.5622161022  CLST         185          1.0000000000
       554       185  TIP3  H1            8.3440605265       12.5463646393       26.6352972940  CLST         185          1.0000000000
       555       185  TIP3  H2            9.2313099441       13.3083370978       25.6749156110  CLST         185          1.0000000000
       556       186  TIP3  OH2          11.6823606558       -0.1748909327        4.1870606511  CLST         186          1.0000000000
       557       186  TIP3  H1           11.8833874142       -0.1706829990        3.1963838117  CLST         186          1.0000000000
       558       186  TIP3  H2           10.9253729965        0.4926176648        4.0583764319  CLST         186          1.0000000000
       559       187  TIP3  OH2          20.2582261732       22.7395991905       18.9487851088  CLST         187          1.0000000000
       560       187  TIP3  H1           19.9049756573       23.0586925061       19.7863091540  CLST         187          1.0000000000
       561       187  TIP3  H2           20.4148901587       23.5814261293       18.4439306475  CLST         187          1.0000000000
       562       188  TIP3  OH2          14.8659556681       29.6932254182        0.9775677142  CLST         188          1.0000000000
       563       188  TIP3  H1           15.4332126831       29.7899851138        1.8214794467  CLST         188          1.0000000000
       564       188  TIP3  H2           15.5017884065       29.1559462519        0.4070948519  CLST         188          1.0000000000
       565       189  TIP3  OH2          14.2425412362        0.3845045962       15.0339344852  CLST         189          1.0000000000
       566       189  TIP3  H1           15.0306768737        0.2762606629       15.5789173484  CLST         189          1.0000000000
       567       189  TIP3  H2           14.6870968539        0.2134650365       14.1486904826  CLST         189          1.0000000000
       568       190  TIP3  OH2           0.3958619670       22.5155042699        3.9898215242  CLST         190          1.0000000000
       569       190  TIP3  H1            0.9725445341       21.9458134173        4.4926602967  CLST         190          1.0000000000
       570       190  TIP3  H2            0.9252295847       23.3346034087        3.8249796367  CLST         190          1.0000000000
       571       191  TIP3  OH2          29.3839129005       14.2994777720       26.2739216631  CLST         191          1.0000000000
       572       191  TIP3  H1           28.5790585250       13.8676177095       26.6259554984  CLST         191          1.0000000000
       573       191  TIP3  H2           29.0425520174       15.1533261483       26.1279466480  CLST         191          1.0000000000
       574       192  TIP3  OH2          25.1374584230       30.1002471402       29.5329952049  CLST         192          1.0000000000
       575       192  TIP3  H1           24.5261825091       29.5682038175       29.0028056021  CLST         192          1.0000000000
       576       192  TIP3  H2           24.5165416628       30.6468819335       30.0935521728  CLST         192          1.0000000000
       577       193  TIP3  OH2          17.2937019161       17.1212418491        6.9218663612  CLST         193          1.0000000000
       578       193  TIP3  H1           17.2040652600       16.2783008930        7.4596196428  CLST         193          1.0000000000
       579       193  TIP3  H2           17.9081834701       17.5983978596        7.4437286338  CLST         193          1.0000000000
       580       194  TIP3  OH2          12.8126124464       12.6202756424       19.1357345630  CLST         194          1.0000000000
       581       194  TIP3  H1           13.1178381182       13.4816566975       18.8172092597  CLST         194          1.0000000000
       582       194  TIP3  H2           12.9617879268       12.0090413982       18.3999706891  CLST         194          1.0000000000
       583       195  TIP3  OH2           4.8859934499        2.6773353425        3.4986802726  CLST         195          1.0000000000
       584       195  TIP3  H1            4.1960481084        3.0796489445        3.0111955170  CLST         195          1.0000000000
       585       195  TIP3  H2            5.0900956429        1.9105863373        2.9561926752  CLST         195          1.0000000000
       586       196  TIP3  OH2           7.0623062699        6.5598213653       12.2606759779  CLST         196          1.0000000000
       587       196  TIP3  H1            7.9918240798        6.4383765129       12.5688968223  CLST         196          1.0000000000
       588       196  TIP3  H2            6.7580099678        7.0102379338       13.0777222891  CLST         196          1.0000000000
       589       197  TIP3  OH2          25.8672091771       20.8881909160        3.7083352718  CLST         197          1.0000000000
       590       197  TIP3  H1           25.6126447291       21.2379010549        2.7675526440  CLST         197          1.0000000000
       591       197  TIP3  H2           26.5050817513       21.6221633716        3.8908561680  CLST         197          1.0000000000
       592       198  TIP3  OH2          25.9608973304       21.4354355402       24.2430544874  CLST         198          1.0000000000
       593       198  TIP3  H1           26.2971601346       21.7312754585       23.3860367456  CLST         198          1.0000000000
       594       198  TIP3  H2           24.9868997209       21.3793723295       24.0452953194  CLST         198          1.0000000000
       595       199  TIP3  OH2          11.5079096428        7.6712762336       27.6239306381  CLST         199          1.0000000000
       596       199  TIP3  H1           11.0320562824        8.3057858791       28.1791195165  CLST         199          1.0000000000
       597       199  TIP3  H2           12.3112151827        7.4935096394       28.1246100963  CLST         199          1.0000000000
       598       200  TIP3  OH2          25.7474922482       22.9193599903       29.0788977401  CLST         200          1.0000000000
       599       200  TIP3  H1           26.5847578868       22.6220267617       28.6718802799  CLST         200          1.0000000000
       600       200  TIP3  H2           25.6697965820       23.8316015628       28.7454891639  CLST         200          1.0000000000
       601       201  TIP3  OH2          13.8668781397       19.9016485535       11.9108940950  CLST         201          1.0000000000
       602       201  TIP3  H1           14.3521472262       20.4803637480       11.2782038284  CLST         201          1.0000000000
       603       201  TIP3  H2           12.8851888761       20.0693394033       11.7721033402  CLST         201          1.0000000000
       604       202  TIP3  OH2          27.4536358356       20.7901233667        8.0328025349  CLST         202          1.0000000000
       605       202  TIP3  H1           28.1538710307       20.1273508089        8.2466768001  CLST         202          1.0000000000
       606       202  TIP3  H2           27.1234588682       20.3558175282        7.2718484783  CLST         202          1.0000000000
       607       203  TIP3  OH2          10.4836024937        4.3799009031       13.8492638266  CLST         203          1.0000000000
       608       203  TIP3  H1            9.6186327982        3.9610925267       13.4650503346  CLST         203          1.0000000000
       609       203  TIP3  H2           10.5873466374        3.9643850465       14.7240964475  CLST         203          1.0000000000
       610       204  TIP3  OH2          25.0973295030        6.0948755778        6.0889678238  CLST         204          1.0000000000
       611       204  TIP3  H1           24.4477875721        6.7928362101        5.8517724733  CLST         204          1.0000000000
       612       204  TIP3  H2           25.5168475143        6.6716618125        6.7471501917  CLST         204          1.0000000000
       613       205  TIP3  OH2          28.0272113160        1.3522895954       25.4134939069  CLST         205          1.0000000000
       614       205  TIP3  H1           28.7613381388        1.4104928624       24.8672776604  CLST         205          1.0000000000
       615       205  TIP3  H2           27.6229207150        2.1548463754       24.9867690518  CLST         205          1.0000000000
       616       206  TIP3  OH2          21.6059753421       29.2167082604        4.6111752508  CLST         206          1.0000000000
       617       206  TIP3  H1           21.2849263948       28.6291662996        5.3216599509  CLST         206          1.0000000000
       618       206  TIP3  H2           21.9126953014       29.9172286693        5.1996593120  CLST         206          1.0000000000
       619       207  TIP3  OH2          22.5943870391        9.6393995820        0.3269652558  CLST         207          1.0000000000
       620       207  TIP3  H1           23.1629517590        8.8906043432        0.1504097978  CLST         207          1.0000000000
       621       207  TIP3  H2           21.8533600352        9.1761415081        0.8115470207  CLST         207          1.0000000000
       622       208  TIP3  OH2           9.3531700076       14.3064224730       18.6629069658  CLST         208          1.0000000000
       623       208  TIP3  H1            9.3915863528       13.7089817142       17.9173171320  CLST         208          1.0000000000
       624       208  TIP3  H2           10.1727776780       14.8299308453       18.4917023273  CLST         208          1.0000000000
       625       209  TIP3  OH2          23.8499287875       23.9658738686       15.8402824625  CLST         209          1.0000000000
       626       209  TIP3  H1           22.8359118827       23.9763321418       15.8781718862  CLST         209          1.0000000000
       627       209  TIP3  H2           24.0425843116       23.5554119351       16.6918256477  CLST         209          1.0000000000
       628       210  TIP3  OH2          28.1249539708        1.2438622993        8.0992287943  CLST         210          1.0000000000
       629       210  TIP3  H1           28.8692840397        0.6541187003        8.1120726935  CLST         210          1.0000000000
       630       210  TIP3  H2           28.0997008042        1.3676802912        9.0729190739  CLST         210          1.0000000000
       631       211  TIP3  OH2          29.6151206084        0.0720248190       27.4872996822  CLST         211          1.0000000000
       632       211  TIP3  H1           29.0715587341       -0.6518121931       27.8795917940  CLST         211          1.0000000000
       633       211  TIP3  H2           29.0224266838        0.6366189021       26.9820719422  CLST         211          1.0000000000
       634       212  TIP3  OH2           6.8164008041        3.0198106509        5.6546366970  CLST         212          1.0000000000
       635       212  TIP3  H1            6.7877124211        2.0820035433        5.9102585558  CLST         212          1.0000000000
       636       212  TIP3  H2            5.9566800019        3.1580775343        5.1724715244  CLST         212          1.0000000000
       637       213  TIP3  OH2           1.9411117582       25.4961906920       29.9450723155  CLST         213          1.0000000000
       638       213  TIP3  H1            1.8722582100       26.2943125375       29.3074150540  CLST         213          1.0000000000
       639       213  TIP3  H2            1.9450774952       24.7007119226       29.3948267852  CLST         213          1.0000000000
       640       214  TIP3  OH2           2.1796225464       23.0543944511       18.6132103792  CLST         214          1.0000000000
       641       214  TIP3  H1            2.6837833307       22.2433096414       18.6137407685  CLST         214          1.0000000000
       642       214  TIP3  H2            2.7038171862       23.4886543987       19.3279066920  CLST         214          1.0000000000
       643       215  TIP3  OH2          17.5716447956        2.7200062272       19.3178535691  CLST         215          1.0000000000
       644       215  TIP3  H1           18.2137586267        2.9563311788       19.9858348660  CLST         215          1.0000000000
       645       215  TIP3  H2           17.5808695922        1.7324488256       19.2896475059  CLST         215          1.0000000000
       646       216  TIP3  OH2          11.6641195928       23.8444631663       25.7667876191  CLST         216          1.0000000000
       647       216  TIP3  H1           10.9684388703       23.1617915433       25.5333764457  CLST         216          1.0000000000
       648       216  TIP3  H2           10.9187576120       24.4959096823       25.9484627342  CLST         216          1.0000000000
       649       217  TIP3  OH2          23.8677671025        9.4979125698        4.1804597606  CLST         217          1.0000000000
       650       217  TIP3  H1           24.7876016313        9.2172766025        4.3815961799  CLST         217          1.0000000000
       651       217  TIP3  H2           23.3788591180        8.6908972794        4.0249600582  CLST         217          1.0000000000
       652       218  TIP3  OH2           5.8297885897       22.8847682350       21.8966423091  CLST         218          1.0000000000
       653       218  TIP3  H1            5.9767155038       21.9321303315       21.8144047533  CLST         218          1.0000000000
       654       218  TIP3  H2            5.8701658544       22.9787649357       22.8490137452  CLST         218          1.0000000000
       655       219  TIP3  OH2           2.5269732993       16.7630749833        7.5749878281  CLST         219          1.0000000000
       656       219  TIP3  H1            2.1004704453       17.1846436072        8.3216502459  CLST         219          1.0000000000
       657       219  TIP3  H2            3.4653590672       16.5556222730        7.8963362895  CLST         219          1.0000000000
       658       220  TIP3  OH2           2.5076226513        1.4963442502       19.1178771467  CLST         220          1.0000000000
       659       220  TIP3  H1            2.5765863561        1.7612360568       18.1676284748  CLST         220          1.0000000000
       660       220  TIP3  H2            3.4161152882        1.1582485700       19.2040978347  CLST         220          1.0000000000
       661       221  TIP3  OH2           1.6305952513       29.7983692684        3.0062728409  CLST         221          1.0000000000
       662       221  TIP3  H1            0.6919739520       29.8983207013        2.7717980471  CLST         221          1.0000000000
       663       221  TIP3  H2            1.7720600378       30.6077847423        3.4892544306  CLST         221          1.0000000000
       664       222  TIP3  OH2          12.0185611409        0.6053950326        1.6432870565  CLST         222          1.0000000000
       665       222  TIP3  H1           12.5106275888        0.4312034997        0.8463171366  CLST         222          1.0000000000
       666       222  TIP3  H2           11.1994568947        1.0391926005        1.3520885754  CLST         222          1.0000000000
       667       223  TIP3  OH2           1.1545239357       19.8488818701       17.0758537912  CLST         223          1.0000000000
       668       223  TIP3  H1            0.7930535582       19.7119880910       18.0173796113  CLST         223          1.0000000000
       669       223  TIP3  H2            0.9786682569       20.7693407531       16.9222876595  CLST         223          1.0000000000
       670       224  TIP3  OH2          21.1399187763        6.8115553955       17.2218507482  CLST         224          1.0000000000
       671       224  TIP3  H1           20.5251888947        6.1317041330       17.5152108447  CLST         224          1.0000000000
       672       224  TIP3  H2           21.9963769775        6.3687610445       17.4035024395  CLST         224          1.0000000000
       673       225  TIP3  OH2          13.2829177253        3.6926051329       22.8089925824  CLST         225          1.0000000000
       674       225  TIP3  H1           12.7391524926        4.0880468104       22.1273098443  CLST         225          1.0000000000
       675       225  TIP3  H2           12.6239830705        3.1212940949       23.2418512511  CLST         225          1.0000000000
       676       226  TIP3  OH2           5.3346812242        4.9156487515       10.8559776155  CLST         226          1.0000000000
       677       226  TIP3  H1            6.0091114158        5.2415843182       11.4697936933  CLST         226          1.0000000000
       678       226  TIP3  H2            5.4538730208        3.9315858191       10.9999398675  CLST         226          1.0000000000
       679       227  TIP3  OH2          24.2459335152        1.1516863853        9.7602675063  CLST         227          1.0000000000
       680       227  TIP3  H1           23.7281257548        0.7034414161       10.4573677904  CLST         227          1.0000000000
       681       227  TIP3  H2           24.5857662669        0.3411758459        9.4075907335  CLST         227          1.0000000000
       682       228  TIP3  OH2          21.6675894330       25.1992111281       10.4798039823  CLST         228          1.0000000000
       683       228  TIP3  H1           22.0455531166       25.8815413931        9.9059393765  CLST         228          1.0000000000
       684       228  TIP3  H2           22.4412764783       24.6052567542       10.4735532624  CLST         228          1.0000000000
       685       229  TIP3  OH2          11.2968748542        8.1121445697       15.3374024465  CLST         229          1.0000000000
       686       229  TIP3  H1           11.3986872875        8.4826546158       16.2025275568  CLST         229          1.0000000000
       687       229  TIP3  H2           11.9420760618        7.3797625008       15.2986860304  CLST         229          1.0000000000
       688       230  TIP3  OH2          19.4588996109       26.8032588934        8.6957340592  CLST         230          1.0000000000
       689       230  TIP3  H1           19.0577739306       26.0445662746        8.2402678177  CLST         230          1.0000000000
       690       230  TIP3  H2           18.8032667991       26.7971661177        9.4005835218  CLST         230          1.0000000000
       691       231  TIP3  OH2          -0.3045281051        3.1381515153       18.3221172582  CLST         231          1.0000000000
       692       231  TIP3  H1            0.0451845195        2.4961744299       18.9577109287  CLST         231          1.0000000000
       693       231  TIP3  H2            0.3657904156        3.0094842248       17.6040408428  CLST         231          1.0000000000
       694       232  TIP3  OH2           1.8048068576       15.0526910410       18.2482866641  CLST         232          1.0000000000
       695       232  TIP3  H1            1.6114944987       15.4835254352       19.0353375691  CLST         232          1.0000000000
       696       232  TIP3  H2            1.9308610961       15.7523712820       17.5753082640  CLST         232          1.0000000000
       697       233  TIP3  OH2          18.0862775698        9.8068972865        2.0844827327  CLST         233          1.0000000000
       698       233  TIP3  H1           17.6600501434        9.3769778239        2.8558249444  CLST         233          1.0000000000
       699       233  TIP3  H2           17.2946074674        9.8284341127        1.5288804660  CLST         233          1.0000000000
       700       234  TIP3  OH2          27.9591416498        4.4901530879       22.0283239692  CLST         234          1.0000000000
       701       234  TIP3  H1           28.1999690331        5.4351228755       22.1830623137  CLST         234          1.0000000000
       702       234  TIP3  H2           28.1972402752        4.3475349522       21.0937525570  CLST         234          1.0000000000
       703       235  TIP3  OH2          19.7651057141        5.1421480847       24.7032356806  CLST         235          1.0000000000
       704       235  TIP3  H1           19.2442896781        4.8477157164       23.9596957189  CLST         235          1.0000000000
       705       235  TIP3  H2           20.7082530837        4.8234702778       24.4782001498  CLST         235          1.0000000000
       706       236  TIP3  OH2          17.9519840937       19.5588800432       13.5399453644  CLST         236          1.0000000000
       707       236  TIP3  H1           18.5921136440       19.4755131543       12.8475089272  CLST         236          1.0000000000
       708       236  TIP3  H2           17.3323309217       20.2560239119       13.1520544638  CLST         236          1.0000000000
       709       237  TIP3  OH2          24.0824386789       23.9371447299       10.5630311847  CLST         237          1.0000000000
       710       237  TIP3  H1           24.1922621446       23.0965960490       10.0531381392  CLST         237          1.0000000000
       711       237  TIP3  H2           25.0918108062       24.1059328845       10.8254108909  CLST         237          1.0000000000
       712       238  TIP3  OH2          29.3673334776        3.6267384574       27.5731603550  CLST         238          1.0000000000
       713       238  TIP3  H1           29.0754434310        4.2249018213       26.8779958672  CLST         238          1.0000000000
       714       238  TIP3  H2           28.5638940462        3.2784864792       27.8682226999  CLST         238          1.0000000000
       715       239  TIP3  OH2           8.0293659930        7.3485660977       30.2525900096  CLST         239          1.0000000000
       716       239  TIP3  H1            8.3652037120        6.5869081154       29.8323968891  CLST         239          1.0000000000
       717       239  TIP3  H2            8.9282984894        7.8253004935       30.3881131480  CLST         239          1.0000000000
       718       240  TIP3  OH2          20.3056665616        8.4959418856        1.7274440625  CLST         240          1.0000000000
       719       240  TIP3  H1           19.4431830150        8.9430449697        1.7077613690  CLST         240          1.0000000000
       720       240  TIP3  H2           20.1448927908        7.5502142490        2.0422123275  CLST         240          1.0000000000
       721       241  TIP3  OH2          10.9853408207       25.7347188003       28.5470451813  CLST         241          1.0000000000
       722       241  TIP3  H1           10.4006886742       25.5210582001       27.7912091762  CLST         241          1.0000000000
       723       241  TIP3  H2           11.8249999252       25.3478580122       28.2714292381  CLST         241          1.0000000000
       724       242  TIP3  OH2           9.3147071947       28.7192734861       25.7822263544  CLST         242          1.0000000000
       725       242  TIP3  H1           10.2936328859       28.8922949485       25.7484446026  CLST         242          1.0000000000
       726       242  TIP3  H2            9.2790955850       28.2740480060       26.6225507770  CLST         242          1.0000000000
       727       243  TIP3  OH2           5.1018201380        9.3845750215       18.1355182729  CLST         243          1.0000000000
       728       243  TIP3  H1            4.5311150631       10.1482557911       18.4673158271  CLST         243          1.0000000000
       729       243  TIP3  H2            4.8603824865        8.6836615266       18.7814329757  CLST         243          1.0000000000
       730       244  TIP3  OH2          21.1516080363       23.7564898018       15.9838538151  CLST         244          1.0000000000
       731       244  TIP3  H1           20.6461534014       24.2437935238       16.6045344295  CLST         244          1.0000000000
       732       244  TIP3  H2           20.4299907794       23.2211110844       15.5541062781  CLST         244          1.0000000000
       733       245  TIP3  OH2          17.0838520034        6.2147432262        2.1822750748  CLST         245          1.0000000000
       734       245  TIP3  H1           17.1566963061        6.8774599733        2.9261757317  CLST         245          1.0000000000
       735       245  TIP3  H2           17.9447210774        6.2781048440        1.6851411918  CLST         245          1.0000000000
       736       246  TIP3  OH2          21.0760776234        6.3999209103       28.4362837307  CLST         246          1.0000000000
       737       246  TIP3  H1           20.2116570821        6.3369612119       28.0183802323  CLST         246          1.0000000000
       738       246  TIP3  H2           21.3229834544        7.3170723420       28.4963433235  CLST         246          1.0000000000
       739       247  TIP3  OH2          25.7485950355        7.9609970318        7.9250041496  CLST         247          1.0000000000
       740       247  TIP3  H1           26.4445424385        8.4922566391        8.2562821865  CLST         247          1.0000000000
       741       247  TIP3  H2           25.5354442129        7.5739382599        8.8077465067  CLST         247          1.0000000000
       742       248  TIP3  OH2           9.9130846424       22.0473545923        8.0552996749  CLST         248          1.0000000000
       743       248  TIP3  H1            9.0573981536       21.8010649451        7.7117862028  CLST         248          1.0000000000
       744       248  TIP3  H2           10.1661291274       22.6589888008        7.3151015615  CLST         248          1.0000000000
       745       249  TIP3  OH2           9.6562134369        5.6531334602       29.1457335621  CLST         249          1.0000000000
       746       249  TIP3  H1           10.0250823339        4.8516990431       29.4065433382  CLST         249          1.0000000000
       747       249  TIP3  H2           10.2961236064        6.0017753489       28.5056190153  CLST         249          1.0000000000
       748       250  TIP3  OH2           5.8414530821       25.5569496918        3.3469072048  CLST         250          1.0000000000
       749       250  TIP3  H1            6.3371235255       24.8408915396        2.9086179028  CLST         250          1.0000000000
       750       250  TIP3  H2            5.2103864831       25.1664564165        3.9431370814  CLST         250          1.0000000000
       751       251  TIP3  OH2          15.6631250238       18.5009732324        1.9164171765  CLST         251          1.0000000000
       752       251  TIP3  H1           15.8842513603       17.7830796378        1.2964800249  CLST         251          1.0000000000
       753       251  TIP3  H2           16.3447923408       18.5016107552        2.5651904544  CLST         251          1.0000000000
       754       252  TIP3  OH2          22.9769946386       15.1879327156       18.3697897615  CLST         252          1.0000000000
       755       252  TIP3  H1           22.0940199929       14.7530759763       18.4200279310  CLST         252          1.0000000000
       756       252  TIP3  H2           22.8824603219       15.9996076596       17.8789379239  CLST         252          1.0000000000
       757       253  TIP3  OH2           0.8114422370        7.5559818644        7.8527631424  CLST         253          1.0000000000
       758       253  TIP3  H1            0.6278254253        7.2937406546        6.9164916068  CLST         253          1.0000000000
       759       253  TIP3  H2            1.7496550095        7.4807365499        7.8840518034  CLST         253          1.0000000000
       760       254  TIP3  OH2          18.7431027001        1.4050041991       15.6713637540  CLST         254          1.0000000000
       761       254  TIP3  H1           17.9858015183        0.9008877455       16.0217850301  CLST         254          1.0000000000
       762       254  TIP3  H2           18.2865644304        2.0335662442       15.0869190666  CLST         254          1.0000000000
       763       255  TIP3  OH2           4.2468589542       30.1688591046       29.3853212891  CLST         255          1.0000000000
       764       255  TIP3  H1            4.1163728204       29.3174999540       29.8599884089  CLST         255          1.0000000000
       765       255  TIP3  H2            3.2795775141       30.3190843255       29.2670217547  CLST         255          1.0000000000
       766       256  TIP3  OH2          14.0346291065       27.1465165041       18.1970361037  CLST         256          1.0000000000
       767       256  TIP3  H1           14.6190248395       27.6554233842       17.6442397827  CLST         256          1.0000000000
       768       256  TIP3  H2           13.6181384081       26.4603953735       17.6431627304  CLST         256          1.0000000000
       769       257  TIP3  OH2          23.7855828798       16.8926328678       10.1940300180  CLST         257          1.0000000000
       770       257  TIP3  H1           23.5389958298       15.9961737155        9.8151870183  CLST         257          1.0000000000
       771       257  TIP3  H2           24.6060851164       16.6048441296       10.6037537804  CLST         257          1.0000000000
       772       258  TIP3  OH2          19.9052175472       18.4609004162       23.7106701785  CLST         258          1.0000000000
       773       258  TIP3  H1           20.4788364051       18.0967174396       24.3474116037  CLST         258          1.0000000000
       774       258  TIP3  H2           19.8820390082       19.3554880418       24.0644890791  CLST         258          1.0000000000
       775       259  TIP3  OH2           2.7107942203        1.6077752269       14.0481842332  CLST         259          1.0000000000
       776       259  TIP3  H1            3.3375109279        0.9180988865       13.9765748220  CLST         259          1.0000000000
       777       259  TIP3  H2            2.5176840200        1.5395241297       14.9633853278  CLST         259          1.0000000000
       778       260  TIP3  OH2          19.5574471811       19.8985811541       20.7521530048  CLST         260          1.0000000000
       779       260  TIP3  H1           19.1788839455       19.6955357637       19.9071242827  CLST         260          1.0000000000
       780       260  TIP3  H2           19.2274341693       20.8331871183       20.8614218283  CLST         260          1.0000000000
       781       261  TIP3  OH2           7.0209976842        1.0185111417       30.1718211458  CLST         261          1.0000000000
       782       261  TIP3  H1            6.9806879436        1.7122410064       29.5313114035  CLST         261          1.0000000000
       783       261  TIP3  H2            6.1147555705        0.7588242369       30.0711584771  CLST         261          1.0000000000
       784       262  TIP3  OH2          28.3171896207       14.3688145074        3.0694397080  CLST         262          1.0000000000
       785       262  TIP3  H1           27.7538542329       14.1619988883        3.9095931268  CLST         262          1.0000000000
       786       262  TIP3  H2           28.8415349327       13.6427614014        2.9191952725  CLST         262          1.0000000000
       787       263  TIP3  OH2           6.7269411501        3.7814442178        1.8114060101  CLST         263          1.0000000000
       788       263  TIP3  H1            6.5022119038        3.0597107489        1.2111104406  CLST         263          1.0000000000
       789       263  TIP3  H2            6.1151679078        3.5605077853        2.4727353053  CLST         263          1.0000000000
       790       264  TIP3  OH2          27.1232462666       10.4140234635       10.2500187018  CLST         264          1.0000000000
       791       264  TIP3  H1           27.8786133430       10.9668015245       10.4889514136  CLST         264          1.0000000000
       792       264  TIP3  H2           27.3664897918       10.0651940376        9.4181428435  CLST         264          1.0000000000
       793       265  TIP3  OH2          17.4971120654       12.6954648684       30.1657647580  CLST         265          1.0000000000
       794       265  TIP3  H1           17.5669795889       12.6992523120       29.1755686840  CLST         265          1.0000000000
       795       265  TIP3  H2           17.0056642584       11.8632529803       30.3402772853  CLST         265          1.0000000000
       796       266  TIP3  OH2          26.1943443237        1.7621416481        4.1214797152  CLST         266          1.0000000000
       797       266  TIP3  H1           26.0204701869        0.9458161714        3.5548712735  CLST         266          1.0000000000
       798       266  TIP3  H2           26.5351864854        2.3870504730        3.4347574824  CLST         266          1.0000000000
       799       267  TIP3  OH2          23.0430543424       11.6471290692       24.8243701043  CLST         267          1.0000000000
       800       267  TIP3  H1           22.4284831609       11.4678963811       24.0796591892  CLST         267          1.0000000000
       801       267  TIP3  H2           22.3037284059       11.7109348437       25.4644552405  CLST         267          1.0000000000
       802       268  TIP3  OH2           4.9643118161        3.4189310260       16.2269356047  CLST         268          1.0000000000
       803       268  TIP3  H1            5.6849492862        3.6126483010       16.8310804426  CLST         268          1.0000000000
       804       268  TIP3  H2            4.9839625128        4.2905558432       15.7148324136  CLST         268          1.0000000000
       805       269  TIP3  OH2           9.2953907351       29.9249974250       11.3605120080  CLST         269          1.0000000000
       806       269  TIP3  H1           10.1839474479       30.2781025089       11.4217393375  CLST         269          1.0000000000
       807       269  TIP3  H2            9.1995545602       29.5736510992       12.2592721141  CLST         269          1.0000000000
       808       270  TIP3  OH2          22.2477317062       24.4623096760        6.2753823067  CLST         270          1.0000000000
       809       270  TIP3  H1           22.1811847042       24.3873436015        5.2944599061  CLST         270          1.0000000000
       810       270  TIP3  H2           23.1698807770       24.7206366418        6.4675233384  CLST         270          1.0000000000
       811       271  TIP3  OH2          18.4221629203       12.3997952202       11.6559386390  CLST         271          1.0000000000
       812       271  TIP3  H1           18.9665734508       12.1087281064       12.4345350662  CLST         271          1.0000000000
       813       271  TIP3  H2           19.1083145692       12.8639836906       11.1348056763  CLST         271          1.0000000000
       814       272  TIP3  OH2           7.0835118257       16.2521115673        3.2774437878  CLST         272          1.0000000000
       815       272  TIP3  H1            8.0193170506       16.5894326493        3.3698964081  CLST         272          1.0000000000
       816       272  TIP3  H2            6.8681791716       16.2743200244        4.2455179104  CLST         272          1.0000000000
       817       273  TIP3  OH2          21.7307741169       10.9852513850       22.7430884385  CLST         273          1.0000000000
       818       273  TIP3  H1           20.9638215949       11.3388163675       22.1648739929  CLST         273          1.0000000000
       819       273  TIP3  H2           21.3494945975       10.1270408593       22.9136706942  CLST         273          1.0000000000
       820       274  TIP3  OH2          23.4531594317        0.6306223643       13.8371596623  CLST         274          1.0000000000
       821       274  TIP3  H1           22.8385201743        0.9626335455       14.5182292346  CLST         274          1.0000000000
       822       274  TIP3  H2           22.8725295866        0.3580683382       13.1232397480  CLST         274          1.0000000000
       823       275  TIP3  OH2           3.7869967850       15.0583934023       29.4362559207  CLST         275          1.0000000000
       824       275  TIP3  H1            3.3310909790       15.9073400510       29.6091941497  CLST         275          1.0000000000
       825       275  TIP3  H2            4.1149818827       15.2732703875       28.6199053147  CLST         275          1.0000000000
       826       276  TIP3  OH2           2.4270796168       20.4019250889        7.1804656929  CLST         276          1.0000000000
       827       276  TIP3  H1            2.3437624586       19.8857291513        8.0294790932  CLST         276          1.0000000000
       828       276  TIP3  H2            3.0772074262       21.0641230555        7.3967985018  CLST         276          1.0000000000
       829       277  TIP3  OH2          23.1795181544        7.0420125946        2.9194744801  CLST         277          1.0000000000
       830       277  TIP3  H1           22.5817703841        7.0794243309        2.1851174092  CLST         277          1.0000000000
       831       277  TIP3  H2           23.6226271663        6.2150242143        2.6999028791  CLST         277          1.0000000000
       832       278  TIP3  OH2           4.9823905610       19.8023883332       10.0483299483  CLST         278          1.0000000000
       833       278  TIP3  H1            4.9497383889       20.4243207319        9.2748306153  CLST         278          1.0000000000
       834       278  TIP3  H2            4.4033299647       20.2173982576       10.6225711920  CLST         278          1.0000000000
       835       279  TIP3  OH2          11.9738730553       24.5185396123        7.2970389421  CLST         279          1.0000000000
       836       279  TIP3  H1           11.4744494533       24.4152230653        6.4953947372  CLST         279          1.0000000000
       837       279  TIP3  H2           12.6837600177       25.1639456709        7.1077355768  CLST         279          1.0000000000
       838       280  TIP3  OH2           6.6121091289       21.4848902732       12.7265447082  CLST         280          1.0000000000
       839       280  TIP3  H1            7.0555747736       20.5717443436       12.5782767617  CLST         280          1.0000000000
       840       280  TIP3  H2            7.3008965001       22.1983248522       12.6829138420  CLST         280          1.0000000000
       841       281  TIP3  OH2          28.8994014564        4.7089643700       10.7835549003  CLST         281          1.0000000000
       842       281  TIP3  H1           28.3201204454        3.9803832479       10.4265787629  CLST         281          1.0000000000
       843       281  TIP3  H2           29.2525237601        4.5155276507       11.6720225375  CLST         281          1.0000000000
       844       282  TIP3  OH2          10.6349986420       10.8413368996       19.4238529216  CLST         282          1.0000000000
       845       282  TIP3  H1           11.1252348782       10.0372633210       19.1390193182  CLST         282          1.0000000000
       846       282  TIP3  H2           11.4233745530       11.4198840764       19.4997543487  CLST         282          1.0000000000
       847       283  TIP3  OH2          27.2338101087       25.9317553982       30.1999434862  CLST         283          1.0000000000
       848       283  TIP3  H1           26.4077528765       25.6832859470       29.6894606478  CLST         283          1.0000000000
       849       283  TIP3  H2           27.2879712179       25.1463655413       30.7594539594  CLST         283          1.0000000000
       850       284  TIP3  OH2           4.1846272632       10.7694596364        2.0826860385  CLST         284          1.0000000000
       851       284  TIP3  H1            4.7894342962       10.1164650844        1.6303876612  CLST         284          1.0000000000
       852       284  TIP3  H2            3.4893893497       10.2290182444        2.4851659557  CLST         284          1.0000000000
       853       285  TIP3  OH2          18.6173364394       24.1528094861        8.2401957866  CLST         285          1.0000000000
       854       285  TIP3  H1           19.5495212243       23.9325123687        8.1217070360  CLST         285          1.0000000000
       855       285  TIP3  H2           18.2514250634       24.0628005865        7.3102905853  CLST         285          1.0000000000
       856       286  TIP3  OH2          27.5109408942       20.4463662294       19.5460177083  CLST         286          1.0000000000
       857       286  TIP3  H1           28.1880100818       20.8502518627       19.0595827231  CLST         286          1.0000000000
       858       286  TIP3  H2           27.2642935551       19.6318624174       19.1060122232  CLST         286          1.0000000000
       859       287  TIP3  OH2           2.7831764363       29.5603558135       22.3677313958  CLST         287          1.0000000000
       860       287  TIP3  H1            2.7071529117       30.5323877102       22.3107093137  CLST         287          1.0000000000
       861       287  TIP3  H2            3.7671117785       29.5408664088       22.5285967525  CLST         287          1.0000000000
       862       288  TIP3  OH2          13.8695478810       15.7239041681       21.9347111635  CLST         288          1.0000000000
       863       288  TIP3  H1           13.6222813874       16.4724627253       22.5709586712  CLST         288          1.0000000000
       864       288  TIP3  H2           14.4034051966       15.1714508250       22.5500320823  CLST         288          1.0000000000
       865       289  TIP3  OH2          14.5647465506        3.7014245077       20.1344283315  CLST         289          1.0000000000
       866       289  TIP3  H1           14.6320974514        3.5299955020       21.0417648870  CLST         289          1.0000000000
       867       289  TIP3  H2           15.4610093611        3.5712449992       19.7422434586  CLST         289          1.0000000000
       868       290  TIP3  OH2          11.8245050549        0.9889125712       11.9722537571  CLST         290          1.0000000000
       869       290  TIP3  H1           11.3970455527        1.0365527670       12.8666363159  CLST         290          1.0000000000
       870       290  TIP3  H2           11.9359694488        1.9463226090       11.8145070189  CLST         290          1.0000000000
       871       291  TIP3  OH2          19.0037655119       20.7785577701       27.5919414073  CLST         291          1.0000000000
       872       291  TIP3  H1           19.6332385256       20.3223697442       28.1367803680  CLST         291          1.0000000000
       873       291  TIP3  H2           18.9252530644       21.6157245156       28.0666595299  CLST         291          1.0000000000
       874       292  TIP3  OH2           9.0872550281       28.4336148052       18.6531966100  CLST         292          1.0000000000
       875       292  TIP3  H1            8.2867268072       27.8451254369       18.5857559824  CLST         292          1.0000000000
       876       292  TIP3  H2            9.4902981312       28.2296730795       19.5321807773  CLST         292          1.0000000000
       877       293  TIP3  OH2           2.3693313695        2.7931033949       16.6393459525  CLST         293          1.0000000000
       878       293  TIP3  H1            2.1078227327        3.7198259393       16.7375583607  CLST         293          1.0000000000
       879       293  TIP3  H2            3.2812267389        2.9061532144       16.3774015801  CLST         293          1.0000000000
       880       294  TIP3  OH2           1.7374125565        8.0478068667        0.8277394236  CLST         294          1.0000000000
       881       294  TIP3  H1            1.1876831849        7.2582713326        1.0259311178  CLST         294          1.0000000000
       882       294  TIP3  H2            2.2071872206        8.2478939912        1.6769300808  CLST         294          1.0000000000
       883       295  TIP3  OH2           3.8681944178       12.8984477284       25.9750088881  CLST         295          1.0000000000
       884       295  TIP3  H1            3.0928083887       13.1996247803       26.4774067007  CLST         295          1.0000000000
       885       295  TIP3  H2            4.3095957002       13.6912018431       25.6298432716  CLST         295          1.0000000000
       886       296  TIP3  OH2           2.6196684254        5.6872378656       18.8957825059  CLST         296          1.0000000000
       887       296  TIP3  H1            2.3038723199        5.4807472518       17.9662572519  CLST         296          1.0000000000
       888       296  TIP3  H2            1.8446456554        5.5450405477       19.4403962274  CLST         296          1.0000000000
       889       297  TIP3  OH2          13.6422129896        0.1251036032        8.9509148345  CLST         297          1.0000000000
       890       297  TIP3  H1           13.8206396368        1.0708757180        9.0884675152  CLST         297          1.0000000000
       891       297  TIP3  H2           14.5647724066       -0.1042995932        8.7188582172  CLST         297          1.0000000000
       892       298  TIP3  OH2          12.1539584190       25.0916862911       17.8235017879  CLST         298          1.0000000000
       893       298  TIP3  H1           11.4093049407       24.5775308262       17.4019165094  CLST         298          1.0000000000
       894       298  TIP3  H2           12.8621539097       24.4089926653       17.9763756526  CLST         298          1.0000000000
       895       299  TIP3  OH2           3.4155207515       24.5134433650       22.7839013229  CLST         299          1.0000000000
       896       299  TIP3  H1            3.4900951851       25.4691918976       22.9335906790  CLST         299          1.0000000000
       897       299  TIP3  H2            3.6908337958       24.0763787504       23.5650631099  CLST         299          1.0000000000
       898       300  TIP3  OH2          10.2135985133       23.4497546797       16.3898280744  CLST         300          1.0000000000
       899       300  TIP3  H1           10.2724255179       24.0384732592       15.5352869500  CLST         300          1.0000000000
       900       300  TIP3  H2            9.2979049710       23.5070374203       16.6151082367  CLST         300          1.0000000000
       901       301  TIP3  OH2          11.3305357413       23.5939808326        0.3114641015  CLST         301          1.0000000000
       902       301  TIP3  H1           11.0928643976       24.4720169935        0.2942837750  CLST         301          1.0000000000
       903       301  TIP3  H2           10.8147821514       23.1843910422       -0.3479393961  CLST         301          1.0000000000
       904       302  TIP3  OH2          11.6893773503       23.0617656774       12.1878469480  CLST         302          1.0000000000
       905       302  TIP3  H1           12.2037107042       23.5083243314       11.4971232609  CLST         302          1.0000000000
       906       302  TIP3  H2           11.6200341550       22.2256324884       11.7797369554  CLST         302          1.0000000000
       907       303  TIP3  OH2          21.3965382681       11.5935822055        6.9012622991  CLST         303          1.0000000000
       908       303  TIP3  H1           20.7205089648       12.1658122620        6.3874434248  CLST         303          1.0000000000
       909       303  TIP3  H2           22.0238255443       12.2451668825        7.2706919033  CLST         303          1.0000000000
       910       304  TIP3  OH2          28.3405078462        8.1505600445       29.5791336688  CLST         304          1.0000000000
       911       304  TIP3  H1           27.9318901820        7.6045428243       30.2267728419  CLST         304          1.0000000000
       912       304  TIP3  H2           27.5320672964        8.4955520606       29.0932326006  CLST         304          1.0000000000
       913       305  TIP3  OH2          27.9942195718       24.0927113263       19.9464903649  CLST         305          1.0000000000
       914       305  TIP3  H1           28.1886179890       25.0538359643       19.8433673513  CLST         305          1.0000000000
       915       305  TIP3  H2           28.1202007638       23.7415676566       19.0395298729  CLST         305          1.0000000000
       916       306  TIP3  OH2          21.8806062402       15.4881172652       23.3469732539  CLST         306          1.0000000000
       917       306  TIP3  H1           22.6064249407       14.8469641254       23.5738245226  CLST         306          1.0000000000
       918       306  TIP3  H2           22.0070900609       16.1018731820       24.0877685873  CLST         306          1.0000000000
       919       307  TIP3  OH2           0.7411291195       10.1743128086       15.7632977385  CLST         307          1.0000000000
       920       307  TIP3  H1            1.0007267456       11.0167146385       16.1675851348  CLST         307          1.0000000000
       921       307  TIP3  H2            1.3261498391        9.5587073000       16.2250835039  CLST         307          1.0000000000
       922       308  TIP3  OH2          12.6128421342       26.8445456543       13.3426657553  CLST         308          1.0000000000
       923       308  TIP3  H1           12.7068265100       27.3069281156       12.5046154534  CLST         308          1.0000000000
       924       308  TIP3  H2           13.4235690453       26.3049030831       13.4226355651  CLST         308          1.0000000000
       925       309  TIP3  OH2          12.9006879984       12.5820559115       14.8706806147  CLST         309          1.0000000000
       926       309  TIP3  H1           12.1757075421       12.2441781905       14.5388679350  CLST         309          1.0000000000
       927       309  TIP3  H2           13.3207014832       13.0984301767       14.2788987922  CLST         309          1.0000000000
       928       310  TIP3  OH2           4.3076686461       14.5489007087       23.8542157981  CLST         310          1.0000000000
       929       310  TIP3  H1            4.9064453470       14.7037814231       23.1209729830  CLST         310          1.0000000000
       930       310  TIP3  H2            3.4299382268       14.3992824073       23.3942232407  CLST         310          1.0000000000
       931       311  TIP3  OH2          24.5376289397        6.0697347185       25.0688770485  CLST         311          1.0000000000
       932       311  TIP3  H1           23.6872996175        5.5906358871       25.2442253874  CLST         311          1.0000000000
       933       311  TIP3  H2           24.7458783311        5.7020840195       24.1733601012  CLST         311          1.0000000000
       934       312  TIP3  OH2           5.1105492616       21.6798959392        7.9430494817  CLST         312          1.0000000000
       935       312  TIP3  H1            4.9264484734       22.6401482423        8.2574991138  CLST         312          1.0000000000
       936       312  TIP3  H2            6.0082924132       21.7991833851        7.6083963883  CLST         312          1.0000000000
       937       313  TIP3  OH2          27.9796538516        7.9357099731       11.1495576650  CLST         313          1.0000000000
       938       313  TIP3  H1           27.3695628932        8.6556721160       11.3140856893  CLST         313          1.0000000000
       939       313  TIP3  H2           27.3174067878        7.1395755445       10.9874098112  CLST         313          1.0000000000
       940       314  TIP3  OH2           9.4497480207       27.9990744166       28.3735837160  CLST         314          1.0000000000
       941       314  TIP3  H1            9.9251995056       27.3030670057       28.7876157442  CLST         314          1.0000000000
       942       314  TIP3  H2            8.7848830114       28.2628757942       29.0448200321  CLST         314          1.0000000000
       943       315  TIP3  OH2           4.6206350462       10.1462569400       27.7094353953  CLST         315          1.0000000000
       944       315  TIP3  H1            3.9467517815        9.4412427107       27.8693591950  CLST         315          1.0000000000
       945       315  TIP3  H2            4.2867537485       10.9183149854       28.2785133065  CLST         315          1.0000000000
       946       316  TIP3  OH2          13.8886083777       23.6743772454       24.3634812199  CLST         316          1.0000000000
       947       316  TIP3  H1           13.0522227548       23.7535155189       24.8497238608  CLST         316          1.0000000000
       948       316  TIP3  H2           13.8195528158       24.4362575953       23.7394380147  CLST         316          1.0000000000
       949       317  TIP3  OH2          27.3195007770       20.3034501025       27.8520647075  CLST         317          1.0000000000
       950       317  TIP3  H1           26.4462655134       20.7716848466       27.5774897815  CLST         317          1.0000000000
       951       317  TIP3  H2           27.8376151133       20.4873384557       27.0654954975  CLST         317          1.0000000000
       952       318  TIP3  OH2          28.9861147638        9.7515023150       25.6979767103  CLST         318          1.0000000000
       953       318  TIP3  H1           28.1207108647        9.4379523262       25.2808174830  CLST         318          1.0000000000
       954       318  TIP3  H2           29.1920497690       10.6210059480       25.2585809219  CLST         318          1.0000000000
       955       319  TIP3  OH2           6.1384084977       22.2722937072       28.1609346881  CLST         319          1.0000000000
       956       319  TIP3  H1            6.9234868156       22.1932362978       27.5881183395  CLST         319          1.0000000000
       957       319  TIP3  H2            6.6093731833       21.9786111379       28.9856607295  CLST         319          1.0000000000
       958       320  TIP3  OH2           5.8441358028       12.7908257340       17.9299209277  CLST         320          1.0000000000
       959       320  TIP3  H1            6.0485901605       12.7570159100       16.9591364172  CLST         320          1.0000000000
       960       320  TIP3  H2            6.3171048930       12.0275318658       18.3153055130  CLST         320          1.0000000000
       961       321  TIP3  OH2           1.3398122625       18.8473711125        9.3069928932  CLST         321          1.0000000000
       962       321  TIP3  H1            1.6836281300       18.2182173626        9.9183789710  CLST         321          1.0000000000
       963       321  TIP3  H2            1.6533176885       19.6645105198        9.8441715932  CLST         321          1.0000000000
       964       322  TIP3  OH2           0.8534455464        5.6543288709       10.0274810373  CLST         322          1.0000000000
       965       322  TIP3  H1            0.7605725953        6.3197286980        9.2867371428  CLST         322          1.0000000000
       966       322  TIP3  H2           -0.0490651426        5.3795452561       10.1723736084  CLST         322          1.0000000000
       967       323  TIP3  OH2           8.0512714261        3.3247606206       12.7799722028  CLST         323          1.0000000000
       968       323  TIP3  H1            7.0474482610        3.3370971031       12.7589413269  CLST         323          1.0000000000
       969       323  TIP3  H2            8.2109292742        3.1547560076       11.8042849769  CLST         323          1.0000000000
       970       324  TIP3  OH2           6.5590460672        3.1814271643       28.5568482225  CLST         324          1.0000000000
       971       324  TIP3  H1            6.0416603872        4.0593874533       28.6562994845  CLST         324          1.0000000000
       972       324  TIP3  H2            6.8777041951        3.1855989999       27.6780825692  CLST         324          1.0000000000
       973       325  TIP3  OH2          17.6555112177       21.7590520146       11.8906969917  CLST         325          1.0000000000
       974       325  TIP3  H1           17.3220031016       22.6784568824       11.9591201458  CLST         325          1.0000000000
       975       325  TIP3  H2           18.4921794908       21.8956361014       11.4627481594  CLST         325          1.0000000000
       976       326  TIP3  OH2          17.9952128130        9.3407810509       25.1771606663  CLST         326          1.0000000000
       977       326  TIP3  H1           18.1488818018       10.2906310105       25.2194239639  CLST         326          1.0000000000
       978       326  TIP3  H2           18.7077651843        9.0740393384       24.5512466840  CLST         326          1.0000000000
       979       327  TIP3  OH2          12.5400127195       24.4268726194       10.0876210624  CLST         327          1.0000000000
       980       327  TIP3  H1           12.1730903846       24.1915942816        9.2276487263  CLST         327          1.0000000000
       981       327  TIP3  H2           13.1795898244       25.0976175247        9.7764990005  CLST         327          1.0000000000
       982       328  TIP3  OH2          17.9835638857       22.2205961502       17.6356712108  CLST         328          1.0000000000
       983       328  TIP3  H1           18.7727798467       22.2351159057       18.1813824660  CLST         328          1.0000000000
       984       328  TIP3  H2           18.0424175729       21.2545562456       17.4145001914  CLST         328          1.0000000000
       985       329  TIP3  OH2           6.6858651732       25.8986387585       28.7059224136  CLST         329          1.0000000000
       986       329  TIP3  H1            5.9706309332       26.3255540277       29.2407016301  CLST         329          1.0000000000
       987       329  TIP3  H2            6.3855970077       25.9344214638       27.8306319015  CLST         329          1.0000000000
       988       330  TIP3  OH2          12.9388137435        5.7500488038       15.8094770277  CLST         330          1.0000000000
       989       330  TIP3  H1           13.5813333822        5.4079741956       15.1858225443  CLST         330          1.0000000000
       990       330  TIP3  H2           13.4410472019        6.0717319554       16.6088692126  CLST         330          1.0000000000
       991       331  TIP3  OH2          25.7873046429       -0.0588279497        6.1320099248  CLST         331          1.0000000000
       992       331  TIP3  H1           26.1144712046        0.6875412877        5.6254611029  CLST         331          1.0000000000
       993       331  TIP3  H2           24.8582830298        0.0442259479        6.0541537860  CLST         331          1.0000000000
       994       332  TIP3  OH2          21.4532559435        9.1221496610       28.2194183035  CLST         332          1.0000000000
       995       332  TIP3  H1           20.8164967088        9.8866975037       28.0693739322  CLST         332          1.0000000000
       996       332  TIP3  H2           21.8836314959        9.3308074422       29.0602124495  CLST         332          1.0000000000
       997       333  TIP3  OH2          23.2753441660       21.5741430666       23.4401640069  CLST         333          1.0000000000
       998       333  TIP3  H1           22.9371060161       21.1479862204       22.6137565711  CLST         333          1.0000000000
       999       333  TIP3  H2           22.6014905380       22.2679540352       23.5824820474  CLST         333          1.0000000000
      1000       334  TIP3  OH2          19.7164988170        8.2938726580       20.9909880251  CLST         334          1.0000000000
      1001       334  TIP3  H1           19.9675986586        9.0565941095       20.4805512560  CLST         334          1.0000000000
      1002       334  TIP3  H2           19.4562103974        8.7010878070       21.8008766875  CLST         334          1.0000000000
      1003       335  TIP3  OH2           1.4206373095       30.2452228762       29.0135140114  CLST         335          1.0000000000
      1004       335  TIP3  H1            0.9795761711       29.4724296646       29.2760021730  CLST         335          1.0000000000
      1005       335  TIP3  H2            0.9237300073       30.3696509212       28.1469635129  CLST         335          1.0000000000
      1006       336  TIP3  OH2          11.8358471176        5.6481688603        1.5525703370  CLST         336          1.0000000000
      1007       336  TIP3  H1           11.0844902019        4.9819892531        1.6395043491  CLST         336          1.0000000000
      1008       336  TIP3  H2           11.2659957239        6.4013150230        1.2779172991  CLST         336          1.0000000000
      1009       337  TIP3  OH2           2.2085012925       15.4725711797        5.1616952889  CLST         337          1.0000000000
      1010       337  TIP3  H1            2.2657637189       16.0836963732        5.9510874107  CLST         337          1.0000000000
      1011       337  TIP3  H2            1.7240263671       15.9496226606        4.4309447902  CLST         337          1.0000000000
      1012       338  TIP3  OH2          25.8800258451        2.7239414645       18.7550882267  CLST         338          1.0000000000
      1013       338  TIP3  H1           25.2216883927        2.3380319181       18.1890616812  CLST         338          1.0000000000
      1014       338  TIP3  H2           26.3814023390        1.8461106590       18.8404618532  CLST         338          1.0000000000
      1015       339  TIP3  OH2           5.1273230240        2.2726605576       22.3785824062  CLST         339          1.0000000000
      1016       339  TIP3  H1            4.1533382904        2.2401434176       22.4913388515  CLST         339          1.0000000000
      1017       339  TIP3  H2            5.1177297388        2.8873749484       21.6190101576  CLST         339          1.0000000000
      1018       340  TIP3  OH2          19.5607623571       12.0776614723       21.5668191637  CLST         340          1.0000000000
      1019       340  TIP3  H1           18.6875368883       11.8855045863       21.2078523137  CLST         340          1.0000000000
      1020       340  TIP3  H2           19.4170591474       13.0067748612       21.8899005992  CLST         340          1.0000000000
      1021       341  TIP3  OH2          28.3530240543       14.0694498568       29.5830976860  CLST         341          1.0000000000
      1022       341  TIP3  H1           28.6710436638       13.3655596720       29.0242743599  CLST         341          1.0000000000
      1023       341  TIP3  H2           28.0100436123       14.6968592364       28.9655268335  CLST         341          1.0000000000
      1024       342  TIP3  OH2          18.5957054436        3.5526984411        9.7617258088  CLST         342          1.0000000000
      1025       342  TIP3  H1           18.0206838493        2.7505004800        9.9928308233  CLST         342          1.0000000000
      1026       342  TIP3  H2           19.0736117430        3.7861177219       10.6310622984  CLST         342          1.0000000000
      1027       343  TIP3  OH2          29.5989840911       28.8342558368       15.5094819897  CLST         343          1.0000000000
      1028       343  TIP3  H1           29.1430110457       29.6609801702       15.6651378873  CLST         343          1.0000000000
      1029       343  TIP3  H2           29.7852373990       28.8799949986       14.5439287670  CLST         343          1.0000000000
      1030       344  TIP3  OH2           8.9864059152        4.0236905295        4.1787154056  CLST         344          1.0000000000
      1031       344  TIP3  H1            9.0481707076        4.9083780280        4.5198060364  CLST         344          1.0000000000
      1032       344  TIP3  H2            8.1589949764        3.7194638332        4.5187882485  CLST         344          1.0000000000
      1033       345  TIP3  OH2           0.2423843251        9.7904511988       30.0161905919  CLST         345          1.0000000000
      1034       345  TIP3  H1            0.8558996570        9.2289230621       30.4499212069  CLST         345          1.0000000000
      1035       345  TIP3  H2           -0.5389515245        9.2148112779       30.0252641981  CLST         345          1.0000000000
      1036       346  TIP3  OH2          25.5389650127       15.7232239029        6.2041747186  CLST         346          1.0000000000
      1037       346  TIP3  H1           24.9835882721       16.4953697990        5.9136297054  CLST         346          1.0000000000
      1038       346  TIP3  H2           25.9760534092       16.0270160540        6.9973697994  CLST         346          1.0000000000
      1039       347  TIP3  OH2          16.3628346324       18.7195479128       28.2838829104  CLST         347          1.0000000000
      1040       347  TIP3  H1           16.3928398557       19.3575909480       27.5333223577  CLST         347          1.0000000000
      1041       347  TIP3  H2           16.7721382720       19.1866347515       29.0805958039  CLST         347          1.0000000000
      1042       348  TIP3  OH2           4.3104378588        7.5454388254       22.8647048283  CLST         348          1.0000000000
      1043       348  TIP3  H1            5.1496283896        7.0445062732       22.9415747365  CLST         348          1.0000000000
      1044       348  TIP3  H2            4.1852454902        7.8751110249       23.7675561755  CLST         348          1.0000000000
      1045       349  TIP3  OH2           8.2105453627       10.0564225913        2.6165050585  CLST         349          1.0000000000
      1046       349  TIP3  H1            8.4254279186       10.5142502716        1.7838045071  CLST         349          1.0000000000
      1047       349  TIP3  H2            7.2859154397        9.7162109222        2.4024067851  CLST         349          1.0000000000
      1048       350  TIP3  OH2          21.4256655210        1.0157326192       15.6572620812  CLST         350          1.0000000000
      1049       350  TIP3  H1           21.4511501499        0.0508924305       15.7224315474  CLST         350          1.0000000000
      1050       350  TIP3  H2           20.4528304476        1.1420740154       15.6516002045  CLST         350          1.0000000000
      1051       351  TIP3  OH2          10.3769884891        3.1661532414        6.2422918992  CLST         351          1.0000000000
      1052       351  TIP3  H1           11.0834630499        3.6298201104        6.6057936341  CLST         351          1.0000000000
      1053       351  TIP3  H2           10.1566661003        3.6909792258        5.4545772152  CLST         351          1.0000000000
      1054       352  TIP3  OH2           5.4891068399       29.7473198178       22.1743998389  CLST         352          1.0000000000
      1055       352  TIP3  H1            6.1316468114       29.4924711407       22.8297161889  CLST         352          1.0000000000
      1056       352  TIP3  H2            5.4338695748       30.6735899861       22.3805669025  CLST         352          1.0000000000
      1057       353  TIP3  OH2          28.7116838851        9.6094951055       17.5678013987  CLST         353          1.0000000000
      1058       353  TIP3  H1           29.4972947822        9.3636146134       17.0370547431  CLST         353          1.0000000000
      1059       353  TIP3  H2           28.3643514423        8.7636496815       17.8031082862  CLST         353          1.0000000000
      1060       354  TIP3  OH2          18.5149594527       19.2944241987       16.0619414754  CLST         354          1.0000000000
      1061       354  TIP3  H1           18.2420310475       19.2607014031       15.1780302858  CLST         354          1.0000000000
      1062       354  TIP3  H2           19.4238239831       19.1303455349       15.8475900745  CLST         354          1.0000000000
      1063       355  TIP3  OH2           1.7544502638       16.6521906922       20.4650518795  CLST         355          1.0000000000
      1064       355  TIP3  H1            1.8712262907       16.9884596307       21.3822643851  CLST         355          1.0000000000
      1065       355  TIP3  H2            1.2277414068       17.4156312080       20.1183884552  CLST         355          1.0000000000
      1066       356  TIP3  OH2          17.3232529928       25.0991160071       27.3170538212  CLST         356          1.0000000000
      1067       356  TIP3  H1           17.1191766269       24.1819614375       27.1225190651  CLST         356          1.0000000000
      1068       356  TIP3  H2           17.1108263374       25.5371339283       26.5000413987  CLST         356          1.0000000000
      1069       357  TIP3  OH2          23.5859824081       20.7801736096        4.9471886410  CLST         357          1.0000000000
      1070       357  TIP3  H1           24.4010907706       20.6348536155        4.3960425659  CLST         357          1.0000000000
      1071       357  TIP3  H2           23.6265035205       21.7281662613        4.8082049710  CLST         357          1.0000000000
      1072       358  TIP3  OH2          27.8955296160       22.7116416290        4.1621935132  CLST         358          1.0000000000
      1073       358  TIP3  H1           28.8372621664       22.5886350318        4.0193656532  CLST         358          1.0000000000
      1074       358  TIP3  H2           27.8420439256       22.9674660381        5.1160500214  CLST         358          1.0000000000
      1075       359  TIP3  OH2          10.3323880206        9.9371034016       28.4930152216  CLST         359          1.0000000000
      1076       359  TIP3  H1           10.0301516649       10.1746019178       29.3866384284  CLST         359          1.0000000000
      1077       359  TIP3  H2           11.0382751696       10.6250018213       28.3392240648  CLST         359          1.0000000000
      1078       360  TIP3  OH2           7.4529949623       12.7979643383       12.9943196232  CLST         360          1.0000000000
      1079       360  TIP3  H1            8.2355803494       13.3998350199       12.9439671609  CLST         360          1.0000000000
      1080       360  TIP3  H2            7.2435891208       12.6634033203       12.0655865698  CLST         360          1.0000000000
      1081       361  TIP3  OH2          24.2695271324       19.3499819414       10.5501082384  CLST         361          1.0000000000
      1082       361  TIP3  H1           24.1354796687       19.6471178078        9.6306417584  CLST         361          1.0000000000
      1083       361  TIP3  H2           24.0644659892       18.4003425771       10.4024468000  CLST         361          1.0000000000
      1084       362  TIP3  OH2           4.4620505179       26.8209274179       10.4987022273  CLST         362          1.0000000000
      1085       362  TIP3  H1            4.3429961754       27.2573898175        9.6567589364  CLST         362          1.0000000000
      1086       362  TIP3  H2            5.4132086962       26.6322660133       10.5685003775  CLST         362          1.0000000000
      1087       363  TIP3  OH2           4.8486620251       25.5982393095       14.0136963156  CLST         363          1.0000000000
      1088       363  TIP3  H1            4.5955624124       25.8254034684       14.9650402733  CLST         363          1.0000000000
      1089       363  TIP3  H2            5.8228110980       25.8756886991       14.0072740075  CLST         363          1.0000000000
      1090       364  TIP3  OH2          29.3271486640        4.9508218244       13.4813864756  CLST         364          1.0000000000
      1091       364  TIP3  H1           30.2135890055        4.7857571995       13.9175809851  CLST         364          1.0000000000
      1092       364  TIP3  H2           29.3090160061        5.9088600417       13.4568772165  CLST         364          1.0000000000
      1093       365  TIP3  OH2          22.5687229937        4.9127660263       18.6739766567  CLST         365          1.0000000000
      1094       365  TIP3  H1           22.0436404729        5.1472210884       19.4718930114  CLST         365          1.0000000000
      1095       365  TIP3  H2           23.4734170198        5.1320351417       18.9409280036  CLST         365          1.0000000000
      1096       366  TIP3  OH2          20.2729145714       27.5223573684        0.6530001171  CLST         366          1.0000000000
      1097       366  TIP3  H1           19.5182611954       27.5541829118        1.2723398853  CLST         366          1.0000000000
      1098       366  TIP3  H2           19.7974536766       27.4311374868       -0.2016964674  CLST         366          1.0000000000
      1099       367  TIP3  OH2          13.6957161975       10.5449986765       11.7327881461  CLST         367          1.0000000000
      1100       367  TIP3  H1           13.0399178598       11.2575360170       11.5098622280  CLST         367          1.0000000000
      1101       367  TIP3  H2           13.2856668871       10.2416155570       12.5576929022  CLST         367          1.0000000000
      1102       368  TIP3  OH2          20.4598943086       29.0354986911       13.1613301707  CLST         368          1.0000000000
      1103       368  TIP3  H1           19.7796458047       29.3681824227       12.5075026983  CLST         368          1.0000000000
      1104       368  TIP3  H2           20.6992590329       28.1206655536       13.0031408709  CLST         368          1.0000000000
      1105       369  TIP3  OH2           7.7473704970        9.6253684520       27.7374028930  CLST         369          1.0000000000
      1106       369  TIP3  H1            8.7402536658        9.6891944733       27.8139796365  CLST         369          1.0000000000
      1107       369  TIP3  H2            7.7548133718        8.6768223785       27.8717934372  CLST         369          1.0000000000
      1108       370  TIP3  OH2          23.3961732885       17.3465513450       29.3550614623  CLST         370          1.0000000000
      1109       370  TIP3  H1           24.2838779841       16.9804319447       29.5435422028  CLST         370          1.0000000000
      1110       370  TIP3  H2           23.0082479335       17.2294890603       30.2958458757  CLST         370          1.0000000000
      1111       371  TIP3  OH2           8.7632457236       12.2499657025        9.8295092201  CLST         371          1.0000000000
      1112       371  TIP3  H1            8.8899200797       11.5949273128        9.1457023439  CLST         371          1.0000000000
      1113       371  TIP3  H2            7.7916671331       12.3436262942        9.8952706791  CLST         371          1.0000000000
      1114       372  TIP3  OH2          29.1225178917       11.6340196269       28.3558998660  CLST         372          1.0000000000
      1115       372  TIP3  H1           28.4381865996       10.9987639545       28.0341774873  CLST         372          1.0000000000
      1116       372  TIP3  H2           29.4636373119       11.0628426042       29.1060353718  CLST         372          1.0000000000
      1117       373  TIP3  OH2           8.7932076420       24.7055122456        8.5008204995  CLST         373          1.0000000000
      1118       373  TIP3  H1            8.9139164587       23.7534422108        8.3127246401  CLST         373          1.0000000000
      1119       373  TIP3  H2            9.6881416486       24.9380857436        8.2056820483  CLST         373          1.0000000000
      1120       374  TIP3  OH2          11.1881228992       20.5534151990       25.8806066593  CLST         374          1.0000000000
      1121       374  TIP3  H1           11.5200742936       20.2565006106       26.7092483727  CLST         374          1.0000000000
      1122       374  TIP3  H2           10.7747739646       19.6981224279       25.6986968444  CLST         374          1.0000000000
      1123       375  TIP3  OH2           1.4465001723       13.5493875509       27.4660841132  CLST         375          1.0000000000
      1124       375  TIP3  H1            1.3896672260       14.0330081751       28.3049359724  CLST         375          1.0000000000
      1125       375  TIP3  H2            0.6358095542       13.7636883378       27.0590156510  CLST         375          1.0000000000
      1126       376  TIP3  OH2          10.7922214907        4.5135624684       21.5821841169  CLST         376          1.0000000000
      1127       376  TIP3  H1            9.8489728363        4.5384791650       21.4810087406  CLST         376          1.0000000000
      1128       376  TIP3  H2           10.9472319122        4.8958180709       20.7188158393  CLST         376          1.0000000000
      1129       377  TIP3  OH2           7.9349005552       11.0938292725       18.5872310147  CLST         377          1.0000000000
      1130       377  TIP3  H1            7.9031583019       10.6838743784       17.7210094822  CLST         377          1.0000000000
      1131       377  TIP3  H2            8.8866456164       11.2458250741       18.6253366428  CLST         377          1.0000000000
      1132       378  TIP3  OH2           6.4900371428        9.4018036766        7.5774770081  CLST         378          1.0000000000
      1133       378  TIP3  H1            7.0404794058        8.6088417862        7.6754526259  CLST         378          1.0000000000
      1134       378  TIP3  H2            6.0765340034        9.4547303010        8.4143161267  CLST         378          1.0000000000
      1135       379  TIP3  OH2          23.5648459585       19.7241675428       27.8484021164  CLST         379          1.0000000000
      1136       379  TIP3  H1           23.4776363441       19.7094818067       26.8586954618  CLST         379          1.0000000000
      1137       379  TIP3  H2           23.3281836820       18.8037413661       28.0300657400  CLST         379          1.0000000000
      1138       380  TIP3  OH2           7.4471582680       11.4745264239        4.7844799340  CLST         380          1.0000000000
      1139       380  TIP3  H1            6.6713651094       11.9808325986        4.5267767110  CLST         380          1.0000000000
      1140       380  TIP3  H2            7.7258670413       10.9890324232        3.9706814093  CLST         380          1.0000000000
      1141       381  TIP3  OH2          22.8424583067       23.4195796417       20.0890055960  CLST         381          1.0000000000
      1142       381  TIP3  H1           22.4330042100       23.8001275804       19.3308421723  CLST         381          1.0000000000
      1143       381  TIP3  H2           23.7117110383       23.8334956035       19.9278254519  CLST         381          1.0000000000
      1144       382  TIP3  OH2          26.7192868545        2.3373537629       28.3189820041  CLST         382          1.0000000000
      1145       382  TIP3  H1           26.1659374841        2.7686570282       27.6617121866  CLST         382          1.0000000000
      1146       382  TIP3  H2           26.2697107674        1.4874213501       28.2451890790  CLST         382          1.0000000000
      1147       383  TIP3  OH2          22.7804553530       20.9180020008        8.6115686933  CLST         383          1.0000000000
      1148       383  TIP3  H1           23.6358562742       21.3607947515        8.8942304799  CLST         383          1.0000000000
      1149       383  TIP3  H2           23.2890094672       20.1760107141        8.1040444502  CLST         383          1.0000000000
      1150       384  TIP3  OH2          18.4755746624       24.9285487178       13.3712545803  CLST         384          1.0000000000
      1151       384  TIP3  H1           18.5714706098       23.9945381736       13.7088182255  CLST         384          1.0000000000
      1152       384  TIP3  H2           17.9949419634       24.7201848875       12.5119837779  CLST         384          1.0000000000
      1153       385  TIP3  OH2           7.8360184235        0.5581315758        9.0860194267  CLST         385          1.0000000000
      1154       385  TIP3  H1            8.0289738381        1.4990571409        9.2155571854  CLST         385          1.0000000000
      1155       385  TIP3  H2            8.4509782261        0.1256084694        9.7342741285  CLST         385          1.0000000000
      1156       386  TIP3  OH2          17.8067927172       21.4866793064        8.4864757669  CLST         386          1.0000000000
      1157       386  TIP3  H1           18.4000417862       22.2966043817        8.5357070732  CLST         386          1.0000000000
      1158       386  TIP3  H2           17.4340617583       21.4759424539        9.3584485142  CLST         386          1.0000000000
      1159       387  TIP3  OH2          29.0738878270       17.5363968491       29.2699085265  CLST         387          1.0000000000
      1160       387  TIP3  H1           28.8698535227       17.4212955798       30.2273050313  CLST         387          1.0000000000
      1161       387  TIP3  H2           29.0319120716       18.4140269196       28.9361245511  CLST         387          1.0000000000
      1162       388  TIP3  OH2           3.5133476126        7.3078678739        7.0074432325  CLST         388          1.0000000000
      1163       388  TIP3  H1            2.9704063765        7.5936438416        6.2105963769  CLST         388          1.0000000000
      1164       388  TIP3  H2            4.3466250489        7.5136376159        6.6926926867  CLST         388          1.0000000000
      1165       389  TIP3  OH2          26.5277863246       19.2939946914       30.1615694964  CLST         389          1.0000000000
      1166       389  TIP3  H1           25.7801722538       19.9036194311       30.0206172653  CLST         389          1.0000000000
      1167       389  TIP3  H2           26.8812358932       19.2984194245       29.3254540432  CLST         389          1.0000000000
      1168       390  TIP3  OH2          29.3290465218        4.9367890770        4.6990927552  CLST         390          1.0000000000
      1169       390  TIP3  H1           29.9262919343        4.7723802535        5.4619934900  CLST         390          1.0000000000
      1170       390  TIP3  H2           29.8603645081        4.4028450927        4.0453120150  CLST         390          1.0000000000
      1171       391  TIP3  OH2          24.3076855796       25.4278808704        1.5136101480  CLST         391          1.0000000000
      1172       391  TIP3  H1           24.3976635759       26.2896065914        1.1596985498  CLST         391          1.0000000000
      1173       391  TIP3  H2           23.4159747097       25.4531097686        2.0011066402  CLST         391          1.0000000000
      1174       392  TIP3  OH2           4.9333626082        9.1294131491       25.0354910617  CLST         392          1.0000000000
      1175       392  TIP3  H1            5.8935719308        8.7690718719       25.0854155267  CLST         392          1.0000000000
      1176       392  TIP3  H2            4.7731066708        9.4744054975       25.9188988281  CLST         392          1.0000000000
      1177       393  TIP3  OH2          13.2571588420       11.0091613909       22.4725346812  CLST         393          1.0000000000
      1178       393  TIP3  H1           13.2304350985       10.2910429050       21.7806152699  CLST         393          1.0000000000
      1179       393  TIP3  H2           12.6507632425       10.7694470507       23.2737415889  CLST         393          1.0000000000
      1180       394  TIP3  OH2           1.1421315247        6.7819724053        5.2671785380  CLST         394          1.0000000000
      1181       394  TIP3  H1            0.7397925564        7.0953116861        4.4536388609  CLST         394          1.0000000000
      1182       394  TIP3  H2            1.4457006228        5.8836230336        4.9709213295  CLST         394          1.0000000000
      1183       395  TIP3  OH2          24.2332563002        7.3939027110        0.1353729379  CLST         395          1.0000000000
      1184       395  TIP3  H1           24.1928405814        6.5752333050        0.6889835893  CLST         395          1.0000000000
      1185       395  TIP3  H2           25.1352583273        7.6950072938        0.3971364052  CLST         395          1.0000000000
      1186       396  TIP3  OH2          26.6874195599        9.5914772800       27.8853293595  CLST         396          1.0000000000
      1187       396  TIP3  H1           26.6083516211        9.0614075787       27.1059864806  CLST         396          1.0000000000
      1188       396  TIP3  H2           25.9306453795       10.1341905656       27.6283247398  CLST         396          1.0000000000
      1189       397  TIP3  OH2           2.6014003690       17.5408986716       16.8069008649  CLST         397          1.0000000000
      1190       397  TIP3  H1            1.9971553299       18.2663277844       16.9049473841  CLST         397          1.0000000000
      1191       397  TIP3  H2            3.0768896359       17.6295146274       17.6501927599  CLST         397          1.0000000000
      1192       398  TIP3  OH2           8.8424731324       25.8953321439        0.7607101915  CLST         398          1.0000000000
      1193       398  TIP3  H1            8.5263037122       25.0177451191        0.4438025262  CLST         398          1.0000000000
      1194       398  TIP3  H2            8.0819057999       26.5050989743        0.6556619661  CLST         398          1.0000000000
      1195       399  TIP3  OH2          15.8099415008       27.2822732904       13.4638821060  CLST         399          1.0000000000
      1196       399  TIP3  H1           15.4079788823       26.5318544470       13.9052331382  CLST         399          1.0000000000
      1197       399  TIP3  H2           16.7271951067       27.0731814914       13.6068335654  CLST         399          1.0000000000
      1198       400  TIP3  OH2          17.0084934594        8.6384122393        4.4567695878  CLST         400          1.0000000000
      1199       400  TIP3  H1           16.7383082048        9.2122852544        5.2146029458  CLST         400          1.0000000000
      1200       400  TIP3  H2           17.2913286535        7.9048670212        5.0098975563  CLST         400          1.0000000000
      1201       401  TIP3  OH2           1.4280244909        5.3945479485       16.5049617395  CLST         401          1.0000000000
      1202       401  TIP3  H1            1.6629838464        5.3997785565       15.5905570464  CLST         401          1.0000000000
      1203       401  TIP3  H2            1.0300180854        6.2907808442       16.6400828245  CLST         401          1.0000000000
      1204       402  TIP3  OH2          14.4963818544       25.0683548654       14.3940865794  CLST         402          1.0000000000
      1205       402  TIP3  H1           13.8696137354       24.3134387224       14.4207345637  CLST         402          1.0000000000
      1206       402  TIP3  H2           14.6661879818       25.2832372790       15.3011303447  CLST         402          1.0000000000
      1207       403  TIP3  OH2          17.1004894824       12.1638393033       27.4528615682  CLST         403          1.0000000000
      1208       403  TIP3  H1           16.1721779241       11.8180289904       27.0608951339  CLST         403          1.0000000000
      1209       403  TIP3  H2           17.4992721913       12.3882367755       26.5945395213  CLST         403          1.0000000000
      1210       404  TIP3  OH2           5.3611990288       27.0192190968        0.3170600902  CLST         404          1.0000000000
      1211       404  TIP3  H1            4.5966475401       27.4620269449        0.6304304084  CLST         404          1.0000000000
      1212       404  TIP3  H2            5.5777153591       26.4644673785        1.0614077457  CLST         404          1.0000000000
      1213       405  TIP3  OH2           2.4551654844        8.4008550560       27.1249581906  CLST         405          1.0000000000
      1214       405  TIP3  H1            2.3939191388        9.3811721540       27.0092968165  CLST         405          1.0000000000
      1215       405  TIP3  H2            1.5131270650        8.1649567673       27.1893074937  CLST         405          1.0000000000
      1216       406  TIP3  OH2          21.3749104521       27.7321348099       22.8958599078  CLST         406          1.0000000000
      1217       406  TIP3  H1           21.7098371114       28.5378964585       23.2855600501  CLST         406          1.0000000000
      1218       406  TIP3  H2           20.3838611514       27.9082256725       23.0617672488  CLST         406          1.0000000000
      1219       407  TIP3  OH2           5.4301389914        5.6278041545        4.9650258735  CLST         407          1.0000000000
      1220       407  TIP3  H1            6.3405723621        5.4391013673        5.2121568465  CLST         407          1.0000000000
      1221       407  TIP3  H2            5.4767993946        5.6408438429        3.9724405242  CLST         407          1.0000000000
      1222       408  TIP3  OH2          16.2429599091       25.8564825377       24.6985459480  CLST         408          1.0000000000
      1223       408  TIP3  H1           16.0476493046       26.8208009483       24.5658167155  CLST         408          1.0000000000
      1224       408  TIP3  H2           15.9060986158       25.4466321988       23.8338031612  CLST         408          1.0000000000
      1225       409  TIP3  OH2          28.3591313411       17.6992355625        1.4846434153  CLST         409          1.0000000000
      1226       409  TIP3  H1           27.6119671770       17.2130477865        1.9456239480  CLST         409          1.0000000000
      1227       409  TIP3  H2           28.7041625826       18.3167960800        2.1417758385  CLST         409          1.0000000000
      1228       410  TIP3  OH2          12.9963133954       28.3786310084       11.0859588931  CLST         410          1.0000000000
      1229       410  TIP3  H1           12.4376262279       29.2156706706       10.9031265708  CLST         410          1.0000000000
      1230       410  TIP3  H2           13.6013962873       28.2728699928       10.2882113304  CLST         410          1.0000000000
      1231       411  TIP3  OH2           8.6184670712       16.9068434416       27.8948815858  CLST         411          1.0000000000
      1232       411  TIP3  H1            8.3927601152       16.7845989722       28.8124590872  CLST         411          1.0000000000
      1233       411  TIP3  H2            8.0494355100       16.1801262065       27.4922085072  CLST         411          1.0000000000
      1234       412  TIP3  OH2          13.2902260806       25.9416845892       22.7435915217  CLST         412          1.0000000000
      1235       412  TIP3  H1           12.7217031534       26.0388559689       21.9620996685  CLST         412          1.0000000000
      1236       412  TIP3  H2           12.7817252989       26.4665418981       23.4322420928  CLST         412          1.0000000000
      1237       413  TIP3  OH2           7.5391700936        8.4661814938       25.0786415750  CLST         413          1.0000000000
      1238       413  TIP3  H1            7.7722085627        7.7791198439       25.7295115748  CLST         413          1.0000000000
      1239       413  TIP3  H2            8.4005983194        8.7772517525       24.7249651919  CLST         413          1.0000000000
      1240       414  TIP3  OH2          21.0322542483       25.1921927545       18.3039336180  CLST         414          1.0000000000
      1241       414  TIP3  H1           21.8204678363       25.7012822708       17.9863270329  CLST         414          1.0000000000
      1242       414  TIP3  H2           20.7175334606       25.7282322187       19.1249775083  CLST         414          1.0000000000
      1243       415  TIP3  OH2          15.7615538298        0.8936017174        5.5193670305  CLST         415          1.0000000000
      1244       415  TIP3  H1           14.9590047990        1.3868741017        5.5676008430  CLST         415          1.0000000000
      1245       415  TIP3  H2           16.2045259182        0.9290374520        6.3504641583  CLST         415          1.0000000000
      1246       416  TIP3  OH2          11.5116611971       12.5671768320       28.1762407490  CLST         416          1.0000000000
      1247       416  TIP3  H1           12.0632735818       12.6345028016       27.3455767203  CLST         416          1.0000000000
      1248       416  TIP3  H2           10.7022188790       13.1135652871       27.9853366416  CLST         416          1.0000000000
      1249       417  TIP3  OH2          10.6414263482       17.4965637426       25.3387470707  CLST         417          1.0000000000
      1250       417  TIP3  H1           10.0983298630       17.1741006839       26.1041479731  CLST         417          1.0000000000
      1251       417  TIP3  H2           10.0005117640       17.5182556845       24.5894898399  CLST         417          1.0000000000
      1252       418  TIP3  OH2          28.3357747489        5.4011983045        1.1382149407  CLST         418          1.0000000000
      1253       418  TIP3  H1           27.8343876595        5.1959895017        0.2776046078  CLST         418          1.0000000000
      1254       418  TIP3  H2           27.6486513778        5.3877611846        1.7618928610  CLST         418          1.0000000000
      1255       419  TIP3  OH2          22.1011819397        9.3303648705        8.0955528676  CLST         419          1.0000000000
      1256       419  TIP3  H1           21.9857216715       10.0887499220        7.4298269286  CLST         419          1.0000000000
      1257       419  TIP3  H2           21.2109774778        9.3608335925        8.4571169594  CLST         419          1.0000000000
      1258       420  TIP3  OH2           3.3917509984        8.8845495111       16.0289322249  CLST         420          1.0000000000
      1259       420  TIP3  H1            3.9887181282        9.1350516123       16.7982927928  CLST         420          1.0000000000
      1260       420  TIP3  H2            3.3918572507        7.8781950055       15.8971074526  CLST         420          1.0000000000
      1261       421  TIP3  OH2          26.4702401709        7.0768619986       26.6484159055  CLST         421          1.0000000000
      1262       421  TIP3  H1           25.6251237236        6.6524844238       26.3201098199  CLST         421          1.0000000000
      1263       421  TIP3  H2           26.7967802821        6.4342338800       27.2776104615  CLST         421          1.0000000000
      1264       422  TIP3  OH2           3.2285559713       19.9285716726       27.9055112216  CLST         422          1.0000000000
      1265       422  TIP3  H1            2.6025362520       19.1833307518       28.1603117722  CLST         422          1.0000000000
      1266       422  TIP3  H2            3.2616231801       20.3344262463       28.8016986673  CLST         422          1.0000000000
      1267       423  TIP3  OH2          25.1038062581        5.2186181680        1.5820566138  CLST         423          1.0000000000
      1268       423  TIP3  H1           25.5784869906        4.4445163295        1.2574897660  CLST         423          1.0000000000
      1269       423  TIP3  H2           25.5156535173        5.6040638225        2.3783875888  CLST         423          1.0000000000
      1270       424  TIP3  OH2          20.6474979004        8.5455897756        4.7108758523  CLST         424          1.0000000000
      1271       424  TIP3  H1           21.0432515572        9.2437340873        4.1541072965  CLST         424          1.0000000000
      1272       424  TIP3  H2           20.5711761952        7.7939583997        4.0906936618  CLST         424          1.0000000000
      1273       425  TIP3  OH2          20.4618234131        2.5297345816       21.2570738326  CLST         425          1.0000000000
      1274       425  TIP3  H1           20.4972443274        1.5437073720       21.3167825977  CLST         425          1.0000000000
      1275       425  TIP3  H2           19.6440968588        2.8082854417       21.7375080394  CLST         425          1.0000000000
      1276       426  TIP3  OH2          29.2988559359       21.4054107678       26.1572110762  CLST         426          1.0000000000
      1277       426  TIP3  H1           30.2373904436       21.4221327000       26.0216078895  CLST         426          1.0000000000
      1278       426  TIP3  H2           29.0078296778       20.9949247399       25.3485549243  CLST         426          1.0000000000
      1279       427  TIP3  OH2          20.5612964644        2.0351789188        5.2531412036  CLST         427          1.0000000000
      1280       427  TIP3  H1           20.5032313850        2.9946345941        5.1290153528  CLST         427          1.0000000000
      1281       427  TIP3  H2           19.8768788265        1.9649537298        5.9289476189  CLST         427          1.0000000000
      1282       428  TIP3  OH2          23.7354372136       13.6840899939        6.7213369877  CLST         428          1.0000000000
      1283       428  TIP3  H1           24.1208885883       14.5287768846        6.4924638542  CLST         428          1.0000000000
      1284       428  TIP3  H2           23.7897258661       13.1932426030        5.9137700033  CLST         428          1.0000000000
      1285       429  TIP3  OH2          30.6531627523       18.8748596018       19.4766915171  CLST         429          1.0000000000
      1286       429  TIP3  H1           29.7690309165       18.4099535955       19.2469117754  CLST         429          1.0000000000
      1287       429  TIP3  H2           30.3540343200       19.3037348025       20.2905549585  CLST         429          1.0000000000
      1288       430  TIP3  OH2           0.5312883403        9.9619541890       10.1275597967  CLST         430          1.0000000000
      1289       430  TIP3  H1           -0.2572172994       10.3925756112       10.4678531447  CLST         430          1.0000000000
      1290       430  TIP3  H2            0.9623189882        9.7162708540       10.9719708113  CLST         430          1.0000000000
      1291       431  TIP3  OH2          24.0081600569       26.7756682354       26.2931429194  CLST         431          1.0000000000
      1292       431  TIP3  H1           24.6824337686       26.7883781499       25.6431316062  CLST         431          1.0000000000
      1293       431  TIP3  H2           23.2482133290       26.4745450752       25.7386187220  CLST         431          1.0000000000
      1294       432  TIP3  OH2          25.0649718012        3.5753061430       26.6880728664  CLST         432          1.0000000000
      1295       432  TIP3  H1           24.3835712003        3.3624280769       26.0667369809  CLST         432          1.0000000000
      1296       432  TIP3  H2           24.6985802987        4.2215985513       27.3355961728  CLST         432          1.0000000000
      1297       433  TIP3  OH2          21.6321776297        3.2737081895       10.2071584684  CLST         433          1.0000000000
      1298       433  TIP3  H1           21.9960704978        3.7109686071        9.3996809518  CLST         433          1.0000000000
      1299       433  TIP3  H2           21.3811929763        4.0533321277       10.7395826997  CLST         433          1.0000000000
      1300       434  TIP3  OH2           1.0047137011       26.2567772161        9.6743324655  CLST         434          1.0000000000
      1301       434  TIP3  H1            0.2468061069       26.4999871916       10.1951488531  CLST         434          1.0000000000
      1302       434  TIP3  H2            1.4565922506       27.1027608706        9.6309547163  CLST         434          1.0000000000
      1303       435  TIP3  OH2           7.5546366447       21.9362696843        6.4593077502  CLST         435          1.0000000000
      1304       435  TIP3  H1            7.6724664785       21.3298961447        5.6978072244  CLST         435          1.0000000000
      1305       435  TIP3  H2            6.9280906895       22.5630483478        6.0759065179  CLST         435          1.0000000000
      1306       436  TIP3  OH2          23.5834314000       14.1938359913       28.0674655725  CLST         436          1.0000000000
      1307       436  TIP3  H1           23.6090966660       15.1255822282       27.7398293059  CLST         436          1.0000000000
      1308       436  TIP3  H2           23.6493651681       14.3400941083       29.0786570468  CLST         436          1.0000000000
      1309       437  TIP3  OH2          29.3416489364       17.0723760318        5.2134739880  CLST         437          1.0000000000
      1310       437  TIP3  H1           28.5821505386       17.6484100151        5.1472187883  CLST         437          1.0000000000
      1311       437  TIP3  H2           30.0447032701       17.6734247233        5.5709679059  CLST         437          1.0000000000
      1312       438  TIP3  OH2          18.2044280956       29.2085055169       27.0558688849  CLST         438          1.0000000000
      1313       438  TIP3  H1           18.3545545131       28.4152110947       27.5675258923  CLST         438          1.0000000000
      1314       438  TIP3  H2           17.5933935247       29.6562386704       27.7041998741  CLST         438          1.0000000000
      1315       439  TIP3  OH2          26.3328646819       26.4642691224        3.6026542740  CLST         439          1.0000000000
      1316       439  TIP3  H1           25.8678360488       27.1577806268        4.0417867299  CLST         439          1.0000000000
      1317       439  TIP3  H2           25.6947633392       25.7396772924        3.6544040094  CLST         439          1.0000000000
      1318       440  TIP3  OH2          20.2212542939       18.6683603768       12.1895372641  CLST         440          1.0000000000
      1319       440  TIP3  H1           20.2930723992       19.1788761323       11.3186428349  CLST         440          1.0000000000
      1320       440  TIP3  H2           21.1863921036       18.4704560459       12.2339023116  CLST         440          1.0000000000
      1321       441  TIP3  OH2          15.8668807345        3.6623429821        7.2664231451  CLST         441          1.0000000000
      1322       441  TIP3  H1           15.9230491721        4.6359964111        7.4120367226  CLST         441          1.0000000000
      1323       441  TIP3  H2           15.3439012988        3.5703444356        6.3980240571  CLST         441          1.0000000000
      1324       442  TIP3  OH2           9.3317913217        0.6805208125       17.9929072188  CLST         442          1.0000000000
      1325       442  TIP3  H1            9.4392252169       -0.1902794909       18.3025991982  CLST         442          1.0000000000
      1326       442  TIP3  H2           10.1616734826        0.9408056601       17.7154164928  CLST         442          1.0000000000
      1327       443  TIP3  OH2           8.0753248774       21.9778326404        3.6377287368  CLST         443          1.0000000000
      1328       443  TIP3  H1            8.8485321442       22.5783201056        3.3838891287  CLST         443          1.0000000000
      1329       443  TIP3  H2            7.3190249531       22.3301302534        3.1608733025  CLST         443          1.0000000000
      1330       444  TIP3  OH2          12.9756410850        8.2140622908       30.0524379949  CLST         444          1.0000000000
      1331       444  TIP3  H1           13.2101885343        9.1648896286       29.8717206737  CLST         444          1.0000000000
      1332       444  TIP3  H2           13.7883895061        7.7093709728       30.1388316959  CLST         444          1.0000000000
      1333       445  TIP3  OH2          21.4964108711       20.6656823080       15.0138307666  CLST         445          1.0000000000
      1334       445  TIP3  H1           21.6487119603       21.4571109463       14.4357980315  CLST         445          1.0000000000
      1335       445  TIP3  H2           22.1404648436       20.6454298713       15.7357860772  CLST         445          1.0000000000
      1336       446  TIP3  OH2          12.8368627062       11.0248754403        0.0317177218  CLST         446          1.0000000000
      1337       446  TIP3  H1           12.5479230273       11.5460879685        0.7700611445  CLST         446          1.0000000000
      1338       446  TIP3  H2           12.6024980357       11.7526141845       -0.6366712977  CLST         446          1.0000000000
      1339       447  TIP3  OH2          26.6182501889       13.3857281992        4.9994969466  CLST         447          1.0000000000
      1340       447  TIP3  H1           26.2015045966       14.2414402495        5.3547966923  CLST         447          1.0000000000
      1341       447  TIP3  H2           25.8225692642       12.9172973724        4.7544124706  CLST         447          1.0000000000
      1342       448  TIP3  OH2          19.5381402686        9.2952480496       17.1644015832  CLST         448          1.0000000000
      1343       448  TIP3  H1           20.0839586636        9.7774642710       17.8221603198  CLST         448          1.0000000000
      1344       448  TIP3  H2           20.0954167283        8.4899857422       16.8599230378  CLST         448          1.0000000000
      1345       449  TIP3  OH2           5.2782042023       22.4259763720       24.6872499431  CLST         449          1.0000000000
      1346       449  TIP3  H1            5.2316705442       21.5144112550       25.0322503728  CLST         449          1.0000000000
      1347       449  TIP3  H2            5.2025364843       22.8507884706       25.5226725419  CLST         449          1.0000000000
      1348       450  TIP3  OH2           4.8505868027       10.2164202711       11.7880728078  CLST         450          1.0000000000
      1349       450  TIP3  H1            5.6887845984        9.6985200303       11.8052089748  CLST         450          1.0000000000
      1350       450  TIP3  H2            4.5953358253        9.9547846209       10.8505166562  CLST         450          1.0000000000
      1351       451  TIP3  OH2          17.6745534491       11.1716590128       17.6123909558  CLST         451          1.0000000000
      1352       451  TIP3  H1           17.5893929232       11.6407273494       16.7638667212  CLST         451          1.0000000000
      1353       451  TIP3  H2           18.4889152550       10.6825267140       17.5205449147  CLST         451          1.0000000000
      1354       452  TIP3  OH2          20.2807796485       14.7189280898        1.5421472918  CLST         452          1.0000000000
      1355       452  TIP3  H1           19.5866138283       14.0862787238        1.7999849077  CLST         452          1.0000000000
      1356       452  TIP3  H2           19.8322761585       15.3487909029        0.9989634279  CLST         452          1.0000000000
      1357       453  TIP3  OH2          27.0771271909       21.6635437111       16.4791536612  CLST         453          1.0000000000
      1358       453  TIP3  H1           26.2079293106       21.4411916797       16.9363027119  CLST         453          1.0000000000
      1359       453  TIP3  H2           27.0838288542       21.0661801108       15.7436165855  CLST         453          1.0000000000
      1360       454  TIP3  OH2          13.5794489315       16.9416888642       11.3033984510  CLST         454          1.0000000000
      1361       454  TIP3  H1           14.3644645680       16.5450440143       11.7232263977  CLST         454          1.0000000000
      1362       454  TIP3  H2           13.1822914255       17.4193297725       12.0274098088  CLST         454          1.0000000000
      1363       455  TIP3  OH2          16.7765351076       20.4411847955       25.8802391712  CLST         455          1.0000000000
      1364       455  TIP3  H1           16.6766068731       21.4090820791       25.7831823685  CLST         455          1.0000000000
      1365       455  TIP3  H2           17.6236705459       20.4543009023       26.3626831338  CLST         455          1.0000000000
      1366       456  TIP3  OH2          22.2072703040        7.2827276572        6.5203591536  CLST         456          1.0000000000
      1367       456  TIP3  H1           22.3308874562        8.0722896566        7.0818766786  CLST         456          1.0000000000
      1368       456  TIP3  H2           21.7010403372        7.6387841602        5.8041739071  CLST         456          1.0000000000
      1369       457  TIP3  OH2          26.4806328661       17.5441095969        8.4247023333  CLST         457          1.0000000000
      1370       457  TIP3  H1           26.5200579082       17.5165121047        9.4514617560  CLST         457          1.0000000000
      1371       457  TIP3  H2           27.3437368893       17.1448908235        8.1917015594  CLST         457          1.0000000000
      1372       458  TIP3  OH2          27.8757298548       12.1563469430       18.9103565336  CLST         458          1.0000000000
      1373       458  TIP3  H1           26.9588965600       12.4326839669       18.7492683055  CLST         458          1.0000000000
      1374       458  TIP3  H2           27.8484128615       11.3085876984       18.4323356541  CLST         458          1.0000000000
      1375       459  TIP3  OH2          16.6304763788        7.2368908872       26.4482088565  CLST         459          1.0000000000
      1376       459  TIP3  H1           16.6068705749        7.8500286186       27.1685105770  CLST         459          1.0000000000
      1377       459  TIP3  H2           17.2684283115        7.7451716675       25.8740660901  CLST         459          1.0000000000
      1378       460  TIP3  OH2           7.2341559973        9.6120906313       16.3851250843  CLST         460          1.0000000000
      1379       460  TIP3  H1            6.5892151420        9.4458972730       17.1062827313  CLST         460          1.0000000000
      1380       460  TIP3  H2            6.9442146347       10.4108304773       15.8513199524  CLST         460          1.0000000000
      1381       461  TIP3  OH2           0.4904994406        7.7615713640       17.5174318020  CLST         461          1.0000000000
      1382       461  TIP3  H1           -0.2144805763        7.1988251772       17.8697993452  CLST         461          1.0000000000
      1383       461  TIP3  H2            0.6178530299        8.1552126407       18.3928458916  CLST         461          1.0000000000
      1384       462  TIP3  OH2           4.3488478442        7.8530305080       20.1710142810  CLST         462          1.0000000000
      1385       462  TIP3  H1            3.5851375194        7.4431582340       19.8939610087  CLST         462          1.0000000000
      1386       462  TIP3  H2            4.4552911606        7.5684628760       21.0928088413  CLST         462          1.0000000000
      1387       463  TIP3  OH2          29.1211326538       18.6450797373       22.0632869477  CLST         463          1.0000000000
      1388       463  TIP3  H1           28.3590991376       18.2816819348       21.6092740355  CLST         463          1.0000000000
      1389       463  TIP3  H2           28.8887857993       18.6311907060       22.9365089135  CLST         463          1.0000000000
      1390       464  TIP3  OH2          28.1587388335        2.7031866627       14.3663525975  CLST         464          1.0000000000
      1391       464  TIP3  H1           27.4030901476        2.4776238658       13.9176945040  CLST         464          1.0000000000
      1392       464  TIP3  H2           28.0249593878        3.6665260042       14.3098943555  CLST         464          1.0000000000
      1393       465  TIP3  OH2          15.5817153266        6.2212177427        8.1151459663  CLST         465          1.0000000000
      1394       465  TIP3  H1           15.2060617567        5.8166325737        8.8543241075  CLST         465          1.0000000000
      1395       465  TIP3  H2           15.7918000402        7.1335036850        8.4304435761  CLST         465          1.0000000000
      1396       466  TIP3  OH2          26.3398382104       16.7317388425        3.0027335956  CLST         466          1.0000000000
      1397       466  TIP3  H1           25.8408845643       15.9705328118        3.2873778950  CLST         466          1.0000000000
      1398       466  TIP3  H2           25.5494856460       17.3356779649        2.7361103523  CLST         466          1.0000000000
      1399       467  TIP3  OH2           4.5460079639       14.7056552288        8.2033367098  CLST         467          1.0000000000
      1400       467  TIP3  H1            5.2038377415       14.1580987837        8.5878576919  CLST         467          1.0000000000
      1401       467  TIP3  H2            4.0427438965       15.0008179346        9.0077405840  CLST         467          1.0000000000
      1402       468  TIP3  OH2          21.6909688085       29.5026963952        1.9201982985  CLST         468          1.0000000000
      1403       468  TIP3  H1           21.6468375651       29.0323348394        2.7281596916  CLST         468          1.0000000000
      1404       468  TIP3  H2           21.1663373986       28.8918894243        1.3154074294  CLST         468          1.0000000000
      1405       469  TIP3  OH2           7.0487544341        0.9842668999       14.6196629222  CLST         469          1.0000000000
      1406       469  TIP3  H1            6.2936630234        0.5174665155       14.2961434127  CLST         469          1.0000000000
      1407       469  TIP3  H2            6.9316177045        1.8475515008       14.1939849181  CLST         469          1.0000000000
      1408       470  TIP3  OH2           1.0592360250       11.5834658995       21.4996830452  CLST         470          1.0000000000
      1409       470  TIP3  H1            1.4257627135       12.4851240839       21.4274241951  CLST         470          1.0000000000
      1410       470  TIP3  H2            1.7505276349       11.1534469997       22.0303739794  CLST         470          1.0000000000
      1411       471  TIP3  OH2           5.3882819783        5.6767540776       28.2207842997  CLST         471          1.0000000000
      1412       471  TIP3  H1            4.8817954972        5.6592749440       27.3245641412  CLST         471          1.0000000000
      1413       471  TIP3  H2            4.6464014401        5.7477051462       28.8279245971  CLST         471          1.0000000000
      1414       472  TIP3  OH2           5.4066477402       17.9794391322       23.3355994046  CLST         472          1.0000000000
      1415       472  TIP3  H1            5.0349608669       17.2357442919       22.7709879017  CLST         472          1.0000000000
      1416       472  TIP3  H2            5.6519306783       17.5930014973       24.1804085476  CLST         472          1.0000000000
      1417       473  TIP3  OH2          26.2831780505        2.8329213339        1.1062062449  CLST         473          1.0000000000
      1418       473  TIP3  H1           27.2402360144        2.6873755544        1.0157991885  CLST         473          1.0000000000
      1419       473  TIP3  H2           25.9388630551        2.1017563087        0.5232766076  CLST         473          1.0000000000
      1420       474  TIP3  OH2           8.3837247611        4.4726123272        7.5486917585  CLST         474          1.0000000000
      1421       474  TIP3  H1            7.6130960616        3.9808618701        7.4195384252  CLST         474          1.0000000000
      1422       474  TIP3  H2            9.0741258053        4.0556264511        7.0576433226  CLST         474          1.0000000000
      1423       475  TIP3  OH2           6.1336542557       26.5054892046       22.3212430344  CLST         475          1.0000000000
      1424       475  TIP3  H1            5.7615906900       26.9590927142       21.5606480111  CLST         475          1.0000000000
      1425       475  TIP3  H2            6.7014496291       25.9418697082       21.8139986801  CLST         475          1.0000000000
      1426       476  TIP3  OH2           3.3987389713       10.1486754098       22.2983628005  CLST         476          1.0000000000
      1427       476  TIP3  H1            3.8422363718        9.3183840737       22.3669693500  CLST         476          1.0000000000
      1428       476  TIP3  H2            3.4001444264       10.4534853345       23.2114187901  CLST         476          1.0000000000
      1429       477  TIP3  OH2          23.1103418278       26.8117379401       20.5509581436  CLST         477          1.0000000000
      1430       477  TIP3  H1           23.5486746538       27.0402828128       19.7043667579  CLST         477          1.0000000000
      1431       477  TIP3  H2           23.7610840580       26.9707462041       21.2253874526  CLST         477          1.0000000000
      1432       478  TIP3  OH2           0.7878319762       25.2735229767       17.6035486062  CLST         478          1.0000000000
      1433       478  TIP3  H1            1.2766663811       24.5008619775       17.8231031760  CLST         478          1.0000000000
      1434       478  TIP3  H2            1.3253281249       25.9982456042       17.9388801070  CLST         478          1.0000000000
      1435       479  TIP3  OH2           0.2544055915       28.7044833826       22.9300352089  CLST         479          1.0000000000
      1436       479  TIP3  H1            0.4521798146       29.0521961737       23.8404261072  CLST         479          1.0000000000
      1437       479  TIP3  H2            1.0443794660       29.0696418962       22.4286615977  CLST         479          1.0000000000
      1438       480  TIP3  OH2           5.6962579743       29.2920284020        8.9974890029  CLST         480          1.0000000000
      1439       480  TIP3  H1            6.0731034933       28.4173178617        8.9942698904  CLST         480          1.0000000000
      1440       480  TIP3  H2            6.5840065519       29.7522311773        8.9665276927  CLST         480          1.0000000000
      1441       481  TIP3  OH2          23.4676336028        2.2353795920       24.5729498999  CLST         481          1.0000000000
      1442       481  TIP3  H1           22.9535620817        2.9719360897       24.1389305357  CLST         481          1.0000000000
      1443       481  TIP3  H2           24.2889690859        2.3493239998       24.0831529864  CLST         481          1.0000000000
      1444       482  TIP3  OH2           3.5670384841       22.3745398594        4.3897472371  CLST         482          1.0000000000
      1445       482  TIP3  H1            4.3148054340       22.6892905466        4.9361382004  CLST         482          1.0000000000
      1446       482  TIP3  H2            3.1731338472       23.2516335305        4.1126839821  CLST         482          1.0000000000
      1447       483  TIP3  OH2          15.0525693764        0.3936395916       22.0539968190  CLST         483          1.0000000000
      1448       483  TIP3  H1           14.9607528992       -0.3641094571       21.4130748552  CLST         483          1.0000000000
      1449       483  TIP3  H2           15.9490106487        0.3199430585       22.4633930227  CLST         483          1.0000000000
      1450       484  TIP3  OH2          14.7448299799       27.8684573074       21.5613788395  CLST         484          1.0000000000
      1451       484  TIP3  H1           14.2865381903       27.1636591009       22.0485255345  CLST         484          1.0000000000
      1452       484  TIP3  H2           14.0274712966       28.2805098125       21.0415053151  CLST         484          1.0000000000
      1453       485  TIP3  OH2          26.7600404311        5.3875663958        3.7644953834  CLST         485          1.0000000000
      1454       485  TIP3  H1           27.5841850345        5.2051663073        4.2284611301  CLST         485          1.0000000000
      1455       485  TIP3  H2           26.2968789227        5.7986326855        4.5051629056  CLST         485          1.0000000000
      1456       486  TIP3  OH2          11.1336406393       13.0182793142       21.1932682076  CLST         486          1.0000000000
      1457       486  TIP3  H1           11.3979757664       12.5840605825       22.0254751087  CLST         486          1.0000000000
      1458       486  TIP3  H2           11.9795323032       12.8827878337       20.7086213705  CLST         486          1.0000000000
      1459       487  TIP3  OH2           2.0953238168       24.5144206793        3.4592251062  CLST         487          1.0000000000
      1460       487  TIP3  H1            2.6098820413       25.1461858815        3.9641778053  CLST         487          1.0000000000
      1461       487  TIP3  H2            1.8057414057       25.0343651096        2.6889676884  CLST         487          1.0000000000
      1462       488  TIP3  OH2          18.6532083134       29.5663026522       11.0063070200  CLST         488          1.0000000000
      1463       488  TIP3  H1           18.2451655290       30.4226891746       10.9543403790  CLST         488          1.0000000000
      1464       488  TIP3  H2           19.4088867292       29.6547010724       10.3358477443  CLST         488          1.0000000000
      1465       489  TIP3  OH2          21.8318654001        8.0883254314       25.7760060844  CLST         489          1.0000000000
      1466       489  TIP3  H1           21.7231773757        8.1911892676       26.7118258533  CLST         489          1.0000000000
      1467       489  TIP3  H2           22.7816062840        7.8150602082       25.6951227554  CLST         489          1.0000000000
      1468       490  TIP3  OH2          18.9327389334       11.0650892641        5.1489074146  CLST         490          1.0000000000
      1469       490  TIP3  H1           18.9395944381       10.1126235100        5.3652328349  CLST         490          1.0000000000
      1470       490  TIP3  H2           19.7005053267       11.1983687185        4.6344709255  CLST         490          1.0000000000
      1471       491  TIP3  OH2          29.4358182026       20.1345259898       10.9925722864  CLST         491          1.0000000000
      1472       491  TIP3  H1           30.2645917488       20.0908159422       10.4215708872  CLST         491          1.0000000000
      1473       491  TIP3  H2           29.7936454688       20.9161342420       11.5059559139  CLST         491          1.0000000000
      1474       492  TIP3  OH2          28.1113536444       10.2658514726        2.7865483765  CLST         492          1.0000000000
      1475       492  TIP3  H1           28.8766809962       10.8261933267        2.7886677861  CLST         492          1.0000000000
      1476       492  TIP3  H2           27.5128665733       10.6480152105        2.1015055601  CLST         492          1.0000000000
      1477       493  TIP3  OH2          24.2006438296       10.4167714996       27.4418359678  CLST         493          1.0000000000
      1478       493  TIP3  H1           23.5903903139       10.9909467357       26.9537426030  CLST         493          1.0000000000
      1479       493  TIP3  H2           23.5843694626       10.1703781815       28.1252134483  CLST         493          1.0000000000
      1480       494  TIP3  OH2          16.5207531386       10.7726168652       12.4234817957  CLST         494          1.0000000000
      1481       494  TIP3  H1           15.6182053573       10.9514399833       12.2125608179  CLST         494          1.0000000000
      1482       494  TIP3  H2           16.9513785770       11.6035331398       12.0799278655  CLST         494          1.0000000000
      1483       495  TIP3  OH2           3.1194666465       17.3485778770       13.8563525470  CLST         495          1.0000000000
      1484       495  TIP3  H1            2.8682753244       17.2761152094       14.7778273928  CLST         495          1.0000000000
      1485       495  TIP3  H2            3.6273179967       18.1930174935       13.8770496364  CLST         495          1.0000000000
      1486       496  TIP3  OH2          15.0505492360        6.4940707768        0.2080472595  CLST         496          1.0000000000
      1487       496  TIP3  H1           15.7799090521        6.5599052902        0.8594261047  CLST         496          1.0000000000
      1488       496  TIP3  H2           14.9821735744        5.5686366260        0.1905183984  CLST         496          1.0000000000
      1489       497  TIP3  OH2          16.6743091513       21.6301370674        3.3356592296  CLST         497          1.0000000000
      1490       497  TIP3  H1           16.1359621721       22.4357269784        3.1741399279  CLST         497          1.0000000000
      1491       497  TIP3  H2           16.6287244084       21.4906249399        4.2693501848  CLST         497          1.0000000000
      1492       498  TIP3  OH2           4.2745804682       14.2082251689       19.5441092904  CLST         498          1.0000000000
      1493       498  TIP3  H1            4.5700041167       14.1946619851       18.5967001250  CLST         498          1.0000000000
      1494       498  TIP3  H2            4.9957181846       13.6288321566       19.8932246423  CLST         498          1.0000000000
      1495       499  TIP3  OH2           1.4594350472       10.9003171962       27.4423619255  CLST         499          1.0000000000
      1496       499  TIP3  H1            0.5435441676       11.1023438977       27.5620238141  CLST         499          1.0000000000
      1497       499  TIP3  H2            1.9093602014       11.6097827638       27.8951426403  CLST         499          1.0000000000
      1498       500  TIP3  OH2          24.0465571538       27.8559822568        4.2906518699  CLST         500          1.0000000000
      1499       500  TIP3  H1           23.1529694268       28.3042833849        4.3231958441  CLST         500          1.0000000000
      1500       500  TIP3  H2           24.4918576721       28.3605836313        3.6831149353  CLST         500          1.0000000000
      1501       501  TIP3  OH2          17.7236955748       16.8700457044       24.1940107647  CLST         501          1.0000000000
      1502       501  TIP3  H1           16.9976724537       17.5051769670       24.0803554002  CLST         501          1.0000000000
      1503       501  TIP3  H2           18.4757759198       17.4740181931       23.9747953753  CLST         501          1.0000000000
      1504       502  TIP3  OH2          28.8410412999       26.6420474932       18.8039228010  CLST         502          1.0000000000
      1505       502  TIP3  H1           29.0965693413       27.5731466119       18.9163204446  CLST         502          1.0000000000
      1506       502  TIP3  H2           29.5419566934       26.1989517175       18.3119783689  CLST         502          1.0000000000
      1507       503  TIP3  OH2          30.0332227554       25.2878191588        1.0855375804  CLST         503          1.0000000000
      1508       503  TIP3  H1           30.8587803439       25.3252385310        0.6263658720  CLST         503          1.0000000000
      1509       503  TIP3  H2           29.5056464968       24.7779716599        0.5073554713  CLST         503          1.0000000000
      1510       504  TIP3  OH2          26.0480657963       26.7357745446       12.6038685019  CLST         504          1.0000000000
      1511       504  TIP3  H1           25.4727200706       25.9733259328       12.8134013364  CLST         504          1.0000000000
      1512       504  TIP3  H2           26.1874218547       27.1035462128       13.5219168877  CLST         504          1.0000000000
      1513       505  TIP3  OH2           5.9006260514       12.1659823106       20.9528938228  CLST         505          1.0000000000
      1514       505  TIP3  H1            5.9109415094       11.5606393082       21.7332225470  CLST         505          1.0000000000
      1515       505  TIP3  H2            6.7597535708       12.5219400368       20.9923773167  CLST         505          1.0000000000
      1516       506  TIP3  OH2          26.2879822923        3.4879264040       10.3302530828  CLST         506          1.0000000000
      1517       506  TIP3  H1           25.5940074440        3.5211973696        9.6282748232  CLST         506          1.0000000000
      1518       506  TIP3  H2           25.9207735472        2.8461172724       10.9376256778  CLST         506          1.0000000000
      1519       507  TIP3  OH2          28.1221350374        6.8419656093       17.7404851106  CLST         507          1.0000000000
      1520       507  TIP3  H1           28.0183670309        5.8806189335       18.0646940465  CLST         507          1.0000000000
      1521       507  TIP3  H2           27.3207214849        6.8805968128       17.1649791801  CLST         507          1.0000000000
      1522       508  TIP3  OH2          19.0414105233        5.0295115350       18.5763042554  CLST         508          1.0000000000
      1523       508  TIP3  H1           18.2782537575        5.5784566199       18.7778672368  CLST         508          1.0000000000
      1524       508  TIP3  H2           18.6935403749        4.1980805177       18.2627645898  CLST         508          1.0000000000
      1525       509  TIP3  OH2           5.1563856950        0.4882161194       19.3530618245  CLST         509          1.0000000000
      1526       509  TIP3  H1            5.7534508128        0.5253954207       20.1145690462  CLST         509          1.0000000000
      1527       509  TIP3  H2            5.8349558610        0.2066666833       18.6756438275  CLST         509          1.0000000000
      1528       510  TIP3  OH2          25.8717987174        0.1397675464       26.4563579947  CLST         510          1.0000000000
      1529       510  TIP3  H1           25.4123387460       -0.2133787210       25.6369288382  CLST         510          1.0000000000
      1530       510  TIP3  H2           26.6597536028        0.6350846048       26.1867235429  CLST         510          1.0000000000
      1531       511  TIP3  OH2          19.5107911972        1.6497883496       29.3434198316  CLST         511          1.0000000000
      1532       511  TIP3  H1           19.1509164320        2.2635469760       29.9969002377  CLST         511          1.0000000000
      1533       511  TIP3  H2           19.1759843665        0.8157256596       29.7357157775  CLST         511          1.0000000000
      1534       512  TIP3  OH2          27.0638833406       22.0646579374       21.7566317703  CLST         512          1.0000000000
      1535       512  TIP3  H1           26.9999396448       21.4714709790       20.9772027080  CLST         512          1.0000000000
      1536       512  TIP3  H2           27.4717590882       22.8514264582       21.3482556931  CLST         512          1.0000000000
      1537       513  TIP3  OH2           9.4725761770       14.5236751926       11.3910762266  CLST         513          1.0000000000
      1538       513  TIP3  H1            9.5338583836       15.4114823601       10.9980191161  CLST         513          1.0000000000
      1539       513  TIP3  H2            8.9614018049       14.0191764087       10.6850017134  CLST         513          1.0000000000
      1540       514  TIP3  OH2          25.4546817091        7.9362656873       17.2351597716  CLST         514          1.0000000000
      1541       514  TIP3  H1           25.1556811330        8.1353588882       16.3459408692  CLST         514          1.0000000000
      1542       514  TIP3  H2           24.5952366528        8.0421816776       17.7280917576  CLST         514          1.0000000000
      1543       515  TIP3  OH2           6.1016395789        6.0305434357       24.1831253562  CLST         515          1.0000000000
      1544       515  TIP3  H1            5.4861049089        6.0960767093       24.9629672848  CLST         515          1.0000000000
      1545       515  TIP3  H2            6.7869940077        6.6089638084       24.5134440001  CLST         515          1.0000000000
      1546       516  TIP3  OH2           9.4391466194        0.4069636560       22.0604131646  CLST         516          1.0000000000
      1547       516  TIP3  H1           10.3650304590        0.3206917015       22.3108636897  CLST         516          1.0000000000
      1548       516  TIP3  H2            9.2990733884        1.3357989047       22.4627508245  CLST         516          1.0000000000
      1549       517  TIP3  OH2          14.0511593520       23.2382325090       21.2384814353  CLST         517          1.0000000000
      1550       517  TIP3  H1           14.4639672705       24.0810318490       21.4078985941  CLST         517          1.0000000000
      1551       517  TIP3  H2           14.6579540987       22.6146159126       21.7047751621  CLST         517          1.0000000000
      1552       518  TIP3  OH2          29.5650561956       12.2804897883       24.4456705920  CLST         518          1.0000000000
      1553       518  TIP3  H1           30.4734115512       12.3040375085       24.1720810901  CLST         518          1.0000000000
      1554       518  TIP3  H2           29.4968368867       13.0954501285       25.0053276762  CLST         518          1.0000000000
      1555       519  TIP3  OH2           0.7566222881        5.1188511587        1.1964406197  CLST         519          1.0000000000
      1556       519  TIP3  H1            0.9350539840        4.1711865376        1.0900050621  CLST         519          1.0000000000
      1557       519  TIP3  H2           -0.2201004502        5.0943534538        1.0469089420  CLST         519          1.0000000000
      1558       520  TIP3  OH2           6.8312357347        6.7487001618       19.7584080512  CLST         520          1.0000000000
      1559       520  TIP3  H1            5.9873026564        7.2487139852       19.6864035379  CLST         520          1.0000000000
      1560       520  TIP3  H2            7.2657076985        7.2318651879       20.5154460487  CLST         520          1.0000000000
      1561       521  TIP3  OH2          24.6497067827       10.1736369761        9.5123165549  CLST         521          1.0000000000
      1562       521  TIP3  H1           25.5607313501       10.3008221906        9.9092994675  CLST         521          1.0000000000
      1563       521  TIP3  H2           24.8203908298       10.4850223603        8.6286837417  CLST         521          1.0000000000
      1564       522  TIP3  OH2           2.9787237186        3.9970359907        2.1663735741  CLST         522          1.0000000000
      1565       522  TIP3  H1            2.1844683201        4.5315603483        1.8871564035  CLST         522          1.0000000000
      1566       522  TIP3  H2            3.1405316443        3.5487287476        1.3485619498  CLST         522          1.0000000000
      1567       523  TIP3  OH2           8.3023539758        0.6226813243       26.8658731429  CLST         523          1.0000000000
      1568       523  TIP3  H1            7.3759148946        0.4331882181       26.7021559301  CLST         523          1.0000000000
      1569       523  TIP3  H2            8.6631468474       -0.1990548609       26.4228208247  CLST         523          1.0000000000
      1570       524  TIP3  OH2          25.1137474754        5.8264195140       19.6015046410  CLST         524          1.0000000000
      1571       524  TIP3  H1           25.5630634955        6.6306087780       19.2280369111  CLST         524          1.0000000000
      1572       524  TIP3  H2           25.6748250655        5.1097339832       19.3680358972  CLST         524          1.0000000000
      1573       525  TIP3  OH2          24.6835924964        5.8097023419       22.3021925904  CLST         525          1.0000000000
      1574       525  TIP3  H1           25.2768669826        6.5242173476       22.0175844464  CLST         525          1.0000000000
      1575       525  TIP3  H2           24.9668689082        5.1924889461       21.5633431588  CLST         525          1.0000000000
      1576       526  TIP3  OH2           9.5228834989       19.1747281127       17.2867227942  CLST         526          1.0000000000
      1577       526  TIP3  H1           10.1632197650       19.5230768882       16.6435994978  CLST         526          1.0000000000
      1578       526  TIP3  H2            8.6845413206       19.4736951495       16.9252310172  CLST         526          1.0000000000
      1579       527  TIP3  OH2          18.7857018288       27.1242399305       28.7267666893  CLST         527          1.0000000000
      1580       527  TIP3  H1           17.9521978318       26.6093357275       28.5138629849  CLST         527          1.0000000000
      1581       527  TIP3  H2           19.3926301154       26.8758142127       28.0746515431  CLST         527          1.0000000000
      1582       528  TIP3  OH2           4.6649977361       18.2817666278       19.0973848878  CLST         528          1.0000000000
      1583       528  TIP3  H1            4.5361774928       19.1548413454       19.3990018944  CLST         528          1.0000000000
      1584       528  TIP3  H2            4.9705911215       18.3897630667       18.1615707905  CLST         528          1.0000000000
      1585       529  TIP3  OH2          24.3850568030       23.3989055297       25.5668521392  CLST         529          1.0000000000
      1586       529  TIP3  H1           25.0732693396       22.7381754200       25.4210092521  CLST         529          1.0000000000
      1587       529  TIP3  H2           24.7219764747       24.1926375671       25.1304823633  CLST         529          1.0000000000
      1588       530  TIP3  OH2           2.7538065491       24.5129145861        6.4907305070  CLST         530          1.0000000000
      1589       530  TIP3  H1            2.3293345296       23.9941634480        7.2202486909  CLST         530          1.0000000000
      1590       530  TIP3  H2            1.9640921682       24.5324754154        5.8558709449  CLST         530          1.0000000000
      1591       531  TIP3  OH2          27.0028372100       26.9205146577       15.3822405484  CLST         531          1.0000000000
      1592       531  TIP3  H1           26.1790033917       27.4682778381       15.4420450990  CLST         531          1.0000000000
      1593       531  TIP3  H2           27.5612567371       27.6967281054       15.3400763506  CLST         531          1.0000000000
      1594       532  TIP3  OH2          29.2163805588       26.6693068598       28.2949609714  CLST         532          1.0000000000
      1595       532  TIP3  H1           28.6567284230       27.4586400579       28.1832422737  CLST         532          1.0000000000
      1596       532  TIP3  H2           28.5944852100       26.0625768454       28.6735329429  CLST         532          1.0000000000
      1597       533  TIP3  OH2          27.1237484691       13.4676610659        8.0521014715  CLST         533          1.0000000000
      1598       533  TIP3  H1           26.2084055976       13.5868697673        7.8702485462  CLST         533          1.0000000000
      1599       533  TIP3  H2           27.1692094363       12.5371454663        8.0938998531  CLST         533          1.0000000000
      1600       534  TIP3  OH2           6.8622047295       25.9315773720       25.1530634912  CLST         534          1.0000000000
      1601       534  TIP3  H1            6.0746083186       25.8986652671       25.7436324823  CLST         534          1.0000000000
      1602       534  TIP3  H2            6.3650087547       25.9407131665       24.2905207840  CLST         534          1.0000000000
      1603       535  TIP3  OH2           7.0726037254       26.4940543011       18.7327070931  CLST         535          1.0000000000
      1604       535  TIP3  H1            6.3376038019       26.8864624921       19.1785223142  CLST         535          1.0000000000
      1605       535  TIP3  H2            7.4089447971       25.9695157131       19.4516864722  CLST         535          1.0000000000
      1606       536  TIP3  OH2          14.7214493184        7.9551400870       10.7867347151  CLST         536          1.0000000000
      1607       536  TIP3  H1           14.2606572892        8.7634578911       11.1486206776  CLST         536          1.0000000000
      1608       536  TIP3  H2           15.2713631388        8.4248300357       10.1306184495  CLST         536          1.0000000000
      1609       537  TIP3  OH2           4.6761040816       25.9674761210       26.6701247101  CLST         537          1.0000000000
      1610       537  TIP3  H1            3.9291892065       26.4894897971       26.2850396169  CLST         537          1.0000000000
      1611       537  TIP3  H2            4.2224808165       25.1287251234       26.9730928278  CLST         537          1.0000000000
      1612       538  TIP3  OH2          29.7562514918        7.6048540015       13.1317925487  CLST         538          1.0000000000
      1613       538  TIP3  H1           29.1646745217        7.5137557871       12.3898455317  CLST         538          1.0000000000
      1614       538  TIP3  H2           29.6442142726        8.6085752961       13.3328179743  CLST         538          1.0000000000
      1615       539  TIP3  OH2           6.1524102024        8.7005054976        1.0873179709  CLST         539          1.0000000000
      1616       539  TIP3  H1            6.7626767539        8.0701169574        0.6429199878  CLST         539          1.0000000000
      1617       539  TIP3  H2            5.6562635393        8.0661774394        1.6286415404  CLST         539          1.0000000000
      1618       540  TIP3  OH2          12.3036506229       29.1422102857       26.2788274686  CLST         540          1.0000000000
      1619       540  TIP3  H1           12.8954433856       29.8296416213       26.0937346189  CLST         540          1.0000000000
      1620       540  TIP3  H2           12.3116242723       29.1130591780       27.2556409312  CLST         540          1.0000000000
      1621       541  TIP3  OH2          10.4104689902        7.1944064110        8.4525741413  CLST         541          1.0000000000
      1622       541  TIP3  H1           10.2827987243        7.5925348582        9.3255430281  CLST         541          1.0000000000
      1623       541  TIP3  H2           11.1229413497        6.6295092638        8.6436051195  CLST         541          1.0000000000
      1624       542  TIP3  OH2          13.6471120033        0.8563391236       24.8739124150  CLST         542          1.0000000000
      1625       542  TIP3  H1           13.2509642530        1.5341844805       24.3547150130  CLST         542          1.0000000000
      1626       542  TIP3  H2           14.1807585636        0.5327315746       24.1177027180  CLST         542          1.0000000000
      1627       543  TIP3  OH2          10.0621971787       23.8294602252        5.6269202405  CLST         543          1.0000000000
      1628       543  TIP3  H1            9.9012404994       22.9792102666        5.2251604322  CLST         543          1.0000000000
      1629       543  TIP3  H2            9.7249005154       24.4583413655        4.9160477156  CLST         543          1.0000000000
      1630       544  TIP3  OH2           6.8377391344        4.3443443427       18.1010808542  CLST         544          1.0000000000
      1631       544  TIP3  H1            7.3354876700        3.6913430979       18.5738956198  CLST         544          1.0000000000
      1632       544  TIP3  H2            6.9195792228        5.0613863164       18.7067910345  CLST         544          1.0000000000
      1633       545  TIP3  OH2          18.2567768631        2.0103143593        7.4003264421  CLST         545          1.0000000000
      1634       545  TIP3  H1           17.6215914447        2.7974446573        7.3308826751  CLST         545          1.0000000000
      1635       545  TIP3  H2           18.5765542688        2.2476967048        8.2556146782  CLST         545          1.0000000000
      1636       546  TIP3  OH2          29.2180663922       12.0592161675       10.8152813083  CLST         546          1.0000000000
      1637       546  TIP3  H1           29.5122886402       12.5157638887       10.0342055577  CLST         546          1.0000000000
      1638       546  TIP3  H2           29.9004981449       12.2590608533       11.4772825848  CLST         546          1.0000000000
      1639       547  TIP3  OH2          28.0114947089        7.1852288528        6.0000684961  CLST         547          1.0000000000
      1640       547  TIP3  H1           28.1356468313        6.8699777445        6.9681206902  CLST         547          1.0000000000
      1641       547  TIP3  H2           28.5334793179        6.5098149006        5.5804522264  CLST         547          1.0000000000
      1642       548  TIP3  OH2           2.8911663475       22.7521670522       12.7419360568  CLST         548          1.0000000000
      1643       548  TIP3  H1            2.6483626894       23.6743933676       12.8471001085  CLST         548          1.0000000000
      1644       548  TIP3  H2            3.8044233667       22.9906476654       12.4634243515  CLST         548          1.0000000000
      1645       549  TIP3  OH2          23.8121144366       14.9404189292        3.2305178123  CLST         549          1.0000000000
      1646       549  TIP3  H1           23.2048417063       15.5310561158        3.6798684936  CLST         549          1.0000000000
      1647       549  TIP3  H2           23.5709651847       14.0265071869        3.5062039051  CLST         549          1.0000000000
      1648       550  TIP3  OH2          22.2166517436        4.5931574048       26.0023002609  CLST         550          1.0000000000
      1649       550  TIP3  H1           22.0245938260        3.7955114117       26.5425742128  CLST         550          1.0000000000
      1650       550  TIP3  H2           21.6558650671        5.2770818406       26.3658487506  CLST         550          1.0000000000
      1651       551  TIP3  OH2          27.9339722527       16.8503457677       26.9998025215  CLST         551          1.0000000000
      1652       551  TIP3  H1           28.2996829841       16.8676721723       27.9441804951  CLST         551          1.0000000000
      1653       551  TIP3  H2           26.9733465689       17.0429644340       27.0781846803  CLST         551          1.0000000000
      1654       552  TIP3  OH2          27.9287253397       22.5661064841       13.7752183204  CLST         552          1.0000000000
      1655       552  TIP3  H1           27.6244459883       21.6892087673       14.0487086290  CLST         552          1.0000000000
      1656       552  TIP3  H2           28.8048495656       22.4301038949       13.3633390007  CLST         552          1.0000000000
      1657       553  TIP3  OH2           8.3229510914       16.4682531232        0.1657383635  CLST         553          1.0000000000
      1658       553  TIP3  H1            8.5393672485       17.3089244257        0.5577464307  CLST         553          1.0000000000
      1659       553  TIP3  H2            8.7657331263       15.7643340728        0.6742804575  CLST         553          1.0000000000
      1660       554  TIP3  OH2          20.9932575109       18.1022854243       26.6232279872  CLST         554          1.0000000000
      1661       554  TIP3  H1           20.8516537459       18.6525640869       27.3245872000  CLST         554          1.0000000000
      1662       554  TIP3  H2           20.2438929594       17.5250676104       26.8752057048  CLST         554          1.0000000000
      1663       555  TIP3  OH2          19.3067378253       25.1324785158       22.5821288259  CLST         555          1.0000000000
      1664       555  TIP3  H1           18.9872469867       26.0450422923       22.5938557252  CLST         555          1.0000000000
      1665       555  TIP3  H2           19.5877174037       25.0798528633       23.5603707758  CLST         555          1.0000000000
      1666       556  TIP3  OH2          19.9113923754       11.1297363518       13.6120143021  CLST         556          1.0000000000
      1667       556  TIP3  H1           19.5246403006       10.4331333323       14.1318748509  CLST         556          1.0000000000
      1668       556  TIP3  H2           20.7381680225       10.7533596254       13.3302574769  CLST         556          1.0000000000
      1669       557  TIP3  OH2          27.7195625807       23.6292958814        1.3879765495  CLST         557          1.0000000000
      1670       557  TIP3  H1           27.8327780102       23.4204222009        2.3553335872  CLST         557          1.0000000000
      1671       557  TIP3  H2           27.9592079564       22.7746500735        0.9158546071  CLST         557          1.0000000000
      1672       558  TIP3  OH2          19.9890034295        6.1123425554        3.1277244154  CLST         558          1.0000000000
      1673       558  TIP3  H1           20.0190762014        5.6617864815        3.9199679285  CLST         558          1.0000000000
      1674       558  TIP3  H2           20.4605245706        5.5275306197        2.5636728577  CLST         558          1.0000000000
      1675       559  TIP3  OH2           1.1654846800        2.3565383218       30.3246764064  CLST         559          1.0000000000
      1676       559  TIP3  H1            1.9669299128        2.4770332142       29.8041009211  CLST         559          1.0000000000
      1677       559  TIP3  H2            1.0417245966        1.3562980725       30.1270622890  CLST         559          1.0000000000
      1678       560  TIP3  OH2          12.5390755760       18.5445578242        0.9924235610  CLST         560          1.0000000000
      1679       560  TIP3  H1           12.7233199109       18.8702797036        0.0692650280  CLST         560          1.0000000000
      1680       560  TIP3  H2           12.2561409822       17.6246422682        0.7300043593  CLST         560          1.0000000000
      1681       561  TIP3  OH2          17.2922329286        8.6084822160       19.5811397450  CLST         561          1.0000000000
      1682       561  TIP3  H1           17.2877260567        9.0595214937       18.7010645559  CLST         561          1.0000000000
      1683       561  TIP3  H2           18.2734143352        8.3852797655       19.7033054751  CLST         561          1.0000000000
      1684       562  TIP3  OH2           9.8133789136        6.9116832438       13.3498297850  CLST         562          1.0000000000
      1685       562  TIP3  H1           10.3695155852        7.3065101330       14.0556972211  CLST         562          1.0000000000
      1686       562  TIP3  H2           10.0111845915        5.9682246549       13.5757830484  CLST         562          1.0000000000
      1687       563  TIP3  OH2           3.1140752758       19.9648560019       23.5918755864  CLST         563          1.0000000000
      1688       563  TIP3  H1            3.7976258103       19.2222948086       23.6509933285  CLST         563          1.0000000000
      1689       563  TIP3  H2            2.3826422061       19.4681928003       23.1404191145  CLST         563          1.0000000000
      1690       564  TIP3  OH2           4.7286782744       16.7451715610       27.5598253457  CLST         564          1.0000000000
      1691       564  TIP3  H1            5.2763627763       16.5071068351       26.7520988229  CLST         564          1.0000000000
      1692       564  TIP3  H2            3.9984647411       17.1870994237       27.0694649357  CLST         564          1.0000000000
      1693       565  TIP3  OH2           1.4677962239       12.2433109435        0.2535700444  CLST         565          1.0000000000
      1694       565  TIP3  H1            1.0550018767       11.3725164684       -0.0556351687  CLST         565          1.0000000000
      1695       565  TIP3  H2            2.3780511098       12.0881257245       -0.0057382111  CLST         565          1.0000000000
      1696       566  TIP3  OH2          21.3893979297        5.5480288731        0.9372870852  CLST         566          1.0000000000
      1697       566  TIP3  H1           21.8009058374        4.7932680962        0.4943798127  CLST         566          1.0000000000
      1698       566  TIP3  H2           20.7524035407        5.8785034934        0.2587191287  CLST         566          1.0000000000
      1699       567  TIP3  OH2          12.2488141365       30.0755381241       22.0795986421  CLST         567          1.0000000000
      1700       567  TIP3  H1           13.2078370397       30.2021394328       22.2510564362  CLST         567          1.0000000000
      1701       567  TIP3  H2           12.2105474131       29.6727107829       21.2145571816  CLST         567          1.0000000000
      1702       568  TIP3  OH2           8.9491150457       23.2068913748       11.5660144200  CLST         568          1.0000000000
      1703       568  TIP3  H1            9.8531578349       23.2864495327       11.8427344242  CLST         568          1.0000000000
      1704       568  TIP3  H2            8.7817848571       24.1248845592       11.3796199909  CLST         568          1.0000000000
      1705       569  TIP3  OH2          21.7404067734       23.9863065824        3.5435908823  CLST         569          1.0000000000
      1706       569  TIP3  H1           21.5869971593       24.6134543868        2.7715041210  CLST         569          1.0000000000
      1707       569  TIP3  H2           21.1738989336       23.2502566551        3.2905643730  CLST         569          1.0000000000
      1708       570  TIP3  OH2           6.2908114143       11.8755404519       15.1920079351  CLST         570          1.0000000000
      1709       570  TIP3  H1            5.3626021926       11.8343146163       14.8608942853  CLST         570          1.0000000000
      1710       570  TIP3  H2            6.7773282988       12.0929638660       14.3942850102  CLST         570          1.0000000000
      1711       571  TIP3  OH2           9.4591927080        1.1132534151        4.3006506322  CLST         571          1.0000000000
      1712       571  TIP3  H1            8.7051277744        1.0243090690        4.8893645288  CLST         571          1.0000000000
      1713       571  TIP3  H2            9.1815587363        0.7814854099        3.4147982712  CLST         571          1.0000000000
      1714       572  TIP3  OH2           5.3316392371       30.6377795290        2.2738604172  CLST         572          1.0000000000
      1715       572  TIP3  H1            4.7676735329       29.9930769335        1.7823520177  CLST         572          1.0000000000
      1716       572  TIP3  H2            6.1196467015       30.1025532631        2.5555681771  CLST         572          1.0000000000
      1717       573  TIP3  OH2          28.3559611894       23.8109358869       23.8143609562  CLST         573          1.0000000000
      1718       573  TIP3  H1           28.4317050164       22.8167639968       23.7715441340  CLST         573          1.0000000000
      1719       573  TIP3  H2           28.9513929889       24.0586760355       23.0608615918  CLST         573          1.0000000000
      1720       574  TIP3  OH2          20.4756974713        0.7037584382        9.4453635416  CLST         574          1.0000000000
      1721       574  TIP3  H1           20.7014907619        1.6452970946        9.7253116452  CLST         574          1.0000000000
      1722       574  TIP3  H2           21.3001218728        0.5050003175        9.0089101516  CLST         574          1.0000000000
      1723       575  TIP3  OH2          26.4229897405       10.7606052124        0.9197277930  CLST         575          1.0000000000
      1724       575  TIP3  H1           26.5398057481       11.1936024662        0.0926840336  CLST         575          1.0000000000
      1725       575  TIP3  H2           25.6923690891       11.3590698907        1.3812102767  CLST         575          1.0000000000
      1726       576  TIP3  OH2          26.7404414257       27.7240594709        6.3274273632  CLST         576          1.0000000000
      1727       576  TIP3  H1           26.3410396410       28.6370321889        6.1311401482  CLST         576          1.0000000000
      1728       576  TIP3  H2           27.4860640634       27.7805013935        5.7059952003  CLST         576          1.0000000000
      1729       577  TIP3  OH2          18.2823227361       11.2368532582        8.4631849863  CLST         577          1.0000000000
      1730       577  TIP3  H1           18.4033840592       12.1816173801        8.7823697522  CLST         577          1.0000000000
      1731       577  TIP3  H2           18.2058598918       11.3337912915        7.5106195260  CLST         577          1.0000000000
      1732       578  TIP3  OH2          28.5140453123        0.9842077607        5.3681776409  CLST         578          1.0000000000
      1733       578  TIP3  H1           27.8342024239        1.4178244352        4.8496997118  CLST         578          1.0000000000
      1734       578  TIP3  H2           28.1452464008        0.7830773330        6.2111037434  CLST         578          1.0000000000
      1735       579  TIP3  OH2          23.7332755150       11.6605971482        1.7162186662  CLST         579          1.0000000000
      1736       579  TIP3  H1           23.5448404879       12.4593818679        1.1407852375  CLST         579          1.0000000000
      1737       579  TIP3  H2           23.5855394963       10.9053421507        1.1476744580  CLST         579          1.0000000000
      1738       580  TIP3  OH2          11.2256143638        3.6646981360       27.0187253736  CLST         580          1.0000000000
      1739       580  TIP3  H1           11.0543571292        2.7154714570       27.2875651833  CLST         580          1.0000000000
      1740       580  TIP3  H2           11.6592882710        3.9760040053       27.8500786118  CLST         580          1.0000000000
      1741       581  TIP3  OH2          12.9282519588       18.4369424188        3.8230712895  CLST         581          1.0000000000
      1742       581  TIP3  H1           12.8351885961       18.2248133964        2.8885262090  CLST         581          1.0000000000
      1743       581  TIP3  H2           13.8662713014       18.2841348749        3.8702512809  CLST         581          1.0000000000
      1744       582  TIP3  OH2           6.2798469729       10.8554786905       23.3218191212  CLST         582          1.0000000000
      1745       582  TIP3  H1            5.5912744350       10.3387259166       23.6529143031  CLST         582          1.0000000000
      1746       582  TIP3  H2            6.6697675243       11.2303519591       24.1253648509  CLST         582          1.0000000000
      1747       583  TIP3  OH2          27.8119671989        4.3072702234       19.4054095868  CLST         583          1.0000000000
      1748       583  TIP3  H1           27.0409571322        3.7999133211       19.1010862964  CLST         583          1.0000000000
      1749       583  TIP3  H2           28.5056137940        3.8793940048       18.8841274360  CLST         583          1.0000000000
      1750       584  TIP3  OH2           2.1810305350       26.4091810056       20.4472249516  CLST         584          1.0000000000
      1751       584  TIP3  H1            2.8658359985       25.7359928768       20.4654830696  CLST         584          1.0000000000
      1752       584  TIP3  H2            2.7167458251       27.1695289022       20.2333625662  CLST         584          1.0000000000
      1753       585  TIP3  OH2          16.2725443826        1.0213195406       28.2834868304  CLST         585          1.0000000000
      1754       585  TIP3  H1           16.5054570293        1.6688854143       27.5698052330  CLST         585          1.0000000000
      1755       585  TIP3  H2           15.3627333679        0.8760947966       28.1715807433  CLST         585          1.0000000000
      1756       586  TIP3  OH2          22.8699257167        8.4546008572       10.5994458519  CLST         586          1.0000000000
      1757       586  TIP3  H1           23.2343846695        9.0318474783        9.9165122367  CLST         586          1.0000000000
      1758       586  TIP3  H2           22.8901353652        7.5842262665       10.1644771426  CLST         586          1.0000000000
      1759       587  TIP3  OH2           4.7523645544        4.4849602731       20.4580534738  CLST         587          1.0000000000
      1760       587  TIP3  H1            4.0078810813        4.8550997005       19.9304832715  CLST         587          1.0000000000
      1761       587  TIP3  H2            5.4213169125        4.9589815516       20.0164004342  CLST         587          1.0000000000
      1762       588  TIP3  OH2           4.8916456313       20.6674481615       16.1718835967  CLST         588          1.0000000000
      1763       588  TIP3  H1            4.0049031145       20.7550877275       15.7744869005  CLST         588          1.0000000000
      1764       588  TIP3  H2            4.8968073835       21.1878250175       16.9671856575  CLST         588          1.0000000000
      1765       589  TIP3  OH2           0.3422793999       15.9401819708        3.0390294995  CLST         589          1.0000000000
      1766       589  TIP3  H1            0.0321466050       15.0853217974        2.6610401190  CLST         589          1.0000000000
      1767       589  TIP3  H2           -0.3616856143       16.2161087838        3.5504972855  CLST         589          1.0000000000
      1768       590  TIP3  OH2           2.3544063901        1.8946684215       22.1303779755  CLST         590          1.0000000000
      1769       590  TIP3  H1            1.6105538415        2.4310309813       22.5323824123  CLST         590          1.0000000000
      1770       590  TIP3  H2            2.1814285522        2.0470340611       21.2182158142  CLST         590          1.0000000000
      1771       591  TIP3  OH2          17.3046712377        0.7962214448       23.5721436810  CLST         591          1.0000000000
      1772       591  TIP3  H1           18.2440175355        0.8701231239       23.8068163164  CLST         591          1.0000000000
      1773       591  TIP3  H2           17.0765250862        1.6712615977       23.9327130560  CLST         591          1.0000000000
      1774       592  TIP3  OH2          25.9787811111       26.4839974806       23.9912685636  CLST         592          1.0000000000
      1775       592  TIP3  H1           26.8296409639       26.1143219873       23.6836585385  CLST         592          1.0000000000
      1776       592  TIP3  H2           25.3231172954       26.0576200779       23.4018148553  CLST         592          1.0000000000
      1777       593  TIP3  OH2          28.5803946214        5.3609205040       25.6720497536  CLST         593          1.0000000000
      1778       593  TIP3  H1           28.1378014660        6.2163851324       25.9146975931  CLST         593          1.0000000000
      1779       593  TIP3  H2           29.3928866416        5.6936326424       25.2374743415  CLST         593          1.0000000000
      1780       594  TIP3  OH2          11.0818321574       10.4972650012       13.5379726580  CLST         594          1.0000000000
      1781       594  TIP3  H1           11.1866581017        9.9264056250       14.2906510510  CLST         594          1.0000000000
      1782       594  TIP3  H2           10.0909879311       10.5323927597       13.4030994660  CLST         594          1.0000000000
      1783       595  TIP3  OH2          21.0583022413       13.7105461569        4.4889605971  CLST         595          1.0000000000
      1784       595  TIP3  H1           20.7017364924       14.4514902265        4.0244655780  CLST         595          1.0000000000
      1785       595  TIP3  H2           20.7945150099       12.9528881611        3.9514304718  CLST         595          1.0000000000
      1786       596  TIP3  OH2          16.1622576858       29.5269315874        8.7768495919  CLST         596          1.0000000000
      1787       596  TIP3  H1           16.2625679380       28.5998264825        9.1390088649  CLST         596          1.0000000000
      1788       596  TIP3  H2           16.7798935201       29.5572599506        8.0468535206  CLST         596          1.0000000000
      1789       597  TIP3  OH2          27.2548804722       24.8575546059       26.0225031201  CLST         597          1.0000000000
      1790       597  TIP3  H1           27.6866269808       24.4085263201       25.3133116888  CLST         597          1.0000000000
      1791       597  TIP3  H2           27.3129590024       25.6980979048       25.5497959728  CLST         597          1.0000000000
      1792       598  TIP3  OH2          22.2117766520       20.7707350159       21.1763307962  CLST         598          1.0000000000
      1793       598  TIP3  H1           21.2918309109       20.3819287969       21.0558159944  CLST         598          1.0000000000
      1794       598  TIP3  H2           22.1288124084       21.6635875591       20.6558189819  CLST         598          1.0000000000
      1795       599  TIP3  OH2          12.1548721661        0.0599699655       17.2797932787  CLST         599          1.0000000000
      1796       599  TIP3  H1           12.6780415226        0.5534649677       16.6521228176  CLST         599          1.0000000000
      1797       599  TIP3  H2           11.7578090888       -0.5001914345       16.6772325754  CLST         599          1.0000000000
      1798       600  TIP3  OH2          14.1045160283       20.9636005950        1.5611285659  CLST         600          1.0000000000
      1799       600  TIP3  H1           14.5006625372       20.1261238070        1.7640705295  CLST         600          1.0000000000
      1800       600  TIP3  H2           13.6149742159       20.6778739037        0.7661572102  CLST         600          1.0000000000
      1801       601  TIP3  OH2          28.0530709489       13.3317853707       22.1089522803  CLST         601          1.0000000000
      1802       601  TIP3  H1           28.7450107983       13.3402279477       22.7860349240  CLST         601          1.0000000000
      1803       601  TIP3  H2           28.6122753809       13.1549639245       21.3152655369  CLST         601          1.0000000000
      1804       602  TIP3  OH2          13.9391985653       27.2375749942        8.7348907765  CLST         602          1.0000000000
      1805       602  TIP3  H1           12.9731276763       27.3653001866        8.6479428141  CLST         602          1.0000000000
      1806       602  TIP3  H2           14.0513741678       26.9030626288        7.8512468470  CLST         602          1.0000000000
      1807       603  TIP3  OH2          22.1241917398       20.7261247741       17.9880583970  CLST         603          1.0000000000
      1808       603  TIP3  H1           21.5228740802       21.4529441918       18.2859733191  CLST         603          1.0000000000
      1809       603  TIP3  H2           21.7130870645       19.9474893811       18.3810628208  CLST         603          1.0000000000
      1810       604  TIP3  OH2           0.0424679583       22.4750301125       12.2013730916  CLST         604          1.0000000000
      1811       604  TIP3  H1            0.0477683843       23.3405027240       11.8027639588  CLST         604          1.0000000000
      1812       604  TIP3  H2            0.9288485899       22.3872542938       12.5600634857  CLST         604          1.0000000000
      1813       605  TIP3  OH2           9.9189638682        8.3228227951        3.7763036149  CLST         605          1.0000000000
      1814       605  TIP3  H1            9.2746830162        8.8106073581        3.2572651910  CLST         605          1.0000000000
      1815       605  TIP3  H2           10.5393150428        8.9848375181        4.1280028355  CLST         605          1.0000000000
      1816       606  TIP3  OH2           0.8700406526        8.7580862244       23.9865424845  CLST         606          1.0000000000
      1817       606  TIP3  H1            1.3695190024        9.4886345454       24.3443850367  CLST         606          1.0000000000
      1818       606  TIP3  H2           -0.0119370178        9.2206215199       24.0020476887  CLST         606          1.0000000000
      1819       607  TIP3  OH2          25.3617385561        1.3090337984       15.8544024339  CLST         607          1.0000000000
      1820       607  TIP3  H1           24.4876909132        1.4129850611       16.3762208575  CLST         607          1.0000000000
      1821       607  TIP3  H2           25.1109787854        0.9243316788       14.9680681658  CLST         607          1.0000000000
      1822       608  TIP3  OH2          27.6978749430       29.8062205613       18.7282830968  CLST         608          1.0000000000
      1823       608  TIP3  H1           28.5248011727       29.8905625603       19.2445263457  CLST         608          1.0000000000
      1824       608  TIP3  H2           28.0198544233       30.0548970956       17.8384876219  CLST         608          1.0000000000
      1825       609  TIP3  OH2           3.7235270444        8.0764342359        3.1279455572  CLST         609          1.0000000000
      1826       609  TIP3  H1            4.2226550096        8.5570717358        3.7946338738  CLST         609          1.0000000000
      1827       609  TIP3  H2            4.1962057861        7.2489809513        3.1353598995  CLST         609          1.0000000000
      1828       610  TIP3  OH2          22.5934480408       21.2656624243       11.6839741737  CLST         610          1.0000000000
      1829       610  TIP3  H1           22.9703181137       20.4062419987       11.2874841370  CLST         610          1.0000000000
      1830       610  TIP3  H2           23.3975084309       21.6451200564       11.9299575172  CLST         610          1.0000000000
      1831       611  TIP3  OH2          14.0844368696       26.0695493970        6.2193083543  CLST         611          1.0000000000
      1832       611  TIP3  H1           14.6663733997       25.4681301483        5.7277383261  CLST         611          1.0000000000
      1833       611  TIP3  H2           14.0148106401       26.6326154053        5.4695220063  CLST         611          1.0000000000
      1834       612  TIP3  OH2          21.3997377970       19.6595508826        6.1117998531  CLST         612          1.0000000000
      1835       612  TIP3  H1           22.2985954893       19.9242076305        5.8275142957  CLST         612          1.0000000000
      1836       612  TIP3  H2           20.8327255566       20.2730946290        5.7038085059  CLST         612          1.0000000000
      1837       613  TIP3  OH2           2.5069480100       28.0589047042       14.4890906417  CLST         613          1.0000000000
      1838       613  TIP3  H1            2.1762677127       27.2049618764       14.7946270944  CLST         613          1.0000000000
      1839       613  TIP3  H2            1.7170784074       28.3913655584       13.9848676053  CLST         613          1.0000000000
      1840       614  TIP3  OH2           1.0319359576        4.5301933004       21.3164182904  CLST         614          1.0000000000
      1841       614  TIP3  H1            1.6926942142        4.3447452278       22.0014762869  CLST         614          1.0000000000
      1842       614  TIP3  H2            0.7357711488        5.4083649969       21.5501711616  CLST         614          1.0000000000
      1843       615  TIP3  OH2           1.2113330768        4.4950332435        7.1199426456  CLST         615          1.0000000000
      1844       615  TIP3  H1            1.8684690205        4.7108897064        7.7453638883  CLST         615          1.0000000000
      1845       615  TIP3  H2            1.6980338048        4.3522118944        6.2496618379  CLST         615          1.0000000000
      1846       616  TIP3  OH2          22.5899548381        4.2932578430       22.9353944235  CLST         616          1.0000000000
      1847       616  TIP3  H1           21.9970862331        4.1266092848       22.2265989761  CLST         616          1.0000000000
      1848       616  TIP3  H2           23.1580110874        4.9677064476       22.5216387294  CLST         616          1.0000000000
      1849       617  TIP3  OH2          14.8224020843        2.0572695242       11.9559590130  CLST         617          1.0000000000
      1850       617  TIP3  H1           14.6117856009        1.1994741405       12.3711021382  CLST         617          1.0000000000
      1851       617  TIP3  H2           13.8919272868        2.2892067628       11.8579406450  CLST         617          1.0000000000
      1852       618  TIP3  OH2          23.1680672082        3.2483374664        2.6922120562  CLST         618          1.0000000000
      1853       618  TIP3  H1           23.7481788120        3.9384533690        2.2489760000  CLST         618          1.0000000000
      1854       618  TIP3  H2           23.6073854477        3.0923650114        3.5287369819  CLST         618          1.0000000000
      1855       619  TIP3  OH2           1.3142855857        5.4693601826       27.8476218679  CLST         619          1.0000000000
      1856       619  TIP3  H1            0.6707227393        4.9539394075       28.3737611600  CLST         619          1.0000000000
      1857       619  TIP3  H2            0.7258081239        6.1889828525       27.7162460131  CLST         619          1.0000000000
      1858       620  TIP3  OH2          26.8710796345        8.4087902358       24.2861181662  CLST         620          1.0000000000
      1859       620  TIP3  H1           26.6249490067        7.8790652581       25.0087423038  CLST         620          1.0000000000
      1860       620  TIP3  H2           26.7306318917        7.8405589371       23.5633522181  CLST         620          1.0000000000
      1861       621  TIP3  OH2           0.9654459470        7.4750283551       21.5539287796  CLST         621          1.0000000000
      1862       621  TIP3  H1            1.1586354509        7.9554476659       22.4087401558  CLST         621          1.0000000000
      1863       621  TIP3  H2            0.8994843085        8.1425538109       20.8911774457  CLST         621          1.0000000000
      1864       622  TIP3  OH2           1.9856780519       10.4281800768        4.0444209695  CLST         622          1.0000000000
      1865       622  TIP3  H1            2.7271711568       10.3367561898        4.6893208206  CLST         622          1.0000000000
      1866       622  TIP3  H2            1.2540124236       10.0080241390        4.5941886424  CLST         622          1.0000000000
      1867       623  TIP3  OH2          -0.0182053517       12.2669158850        2.5701467876  CLST         623          1.0000000000
      1868       623  TIP3  H1            0.6772635118       12.2316789863        1.8529459425  CLST         623          1.0000000000
      1869       623  TIP3  H2            0.4001582578       11.6758512651        3.2244518273  CLST         623          1.0000000000
      1870       624  TIP3  OH2          21.2844882874       28.6339159896       26.2336875950  CLST         624          1.0000000000
      1871       624  TIP3  H1           21.9256575194       29.1083949158       25.6150033703  CLST         624          1.0000000000
      1872       624  TIP3  H2           20.4607776026       29.1223682386       26.1979827702  CLST         624          1.0000000000
      1873       625  TIP3  OH2          20.7140447270       17.1415264043       21.2688310905  CLST         625          1.0000000000
      1874       625  TIP3  H1           20.5727471130       18.0251341304       21.6203997764  CLST         625          1.0000000000
      1875       625  TIP3  H2           21.0222269121       16.6311590837       22.0185233695  CLST         625          1.0000000000
      1876       626  TIP3  OH2          13.4888072921       24.6667882203       27.5793836295  CLST         626          1.0000000000
      1877       626  TIP3  H1           13.0271024079       24.1793221503       26.8971649282  CLST         626          1.0000000000
      1878       626  TIP3  H2           14.1090630721       25.1584935135       26.9462334089  CLST         626          1.0000000000
      1879       627  TIP3  OH2          29.3744270834       18.8278901380        7.8476748322  CLST         627          1.0000000000
      1880       627  TIP3  H1           30.2371187310       18.8918821647        8.3464124918  CLST         627          1.0000000000
      1881       627  TIP3  H2           29.2756412755       17.9110400865        7.8545511036  CLST         627          1.0000000000
      1882       628  TIP3  OH2           7.0930429217        8.8636362340       21.4128532696  CLST         628          1.0000000000
      1883       628  TIP3  H1            6.9111451728        9.6004869447       20.7988962435  CLST         628          1.0000000000
      1884       628  TIP3  H2            6.7109212679        9.3522335692       22.1550584510  CLST         628          1.0000000000
      1885       629  TIP3  OH2          20.5495607992       30.1545183691       20.4889321333  CLST         629          1.0000000000
      1886       629  TIP3  H1           21.4687965771       30.1853920226       20.1704096174  CLST         629          1.0000000000
      1887       629  TIP3  H2           20.4019908187       29.2168582368       20.6168549620  CLST         629          1.0000000000
      1888       630  TIP3  OH2          11.7106226400       12.2796788831       11.5097462027  CLST         630          1.0000000000
      1889       630  TIP3  H1           10.9118473497       12.7926707999       11.2073853355  CLST         630          1.0000000000
      1890       630  TIP3  H2           11.2951870839       11.6063987045       11.9879174583  CLST         630          1.0000000000
      1891       631  TIP3  OH2          17.9896737597       18.9172005045       18.7247966901  CLST         631          1.0000000000
      1892       631  TIP3  H1           17.9833780910       18.9126195249       17.7497349284  CLST         631          1.0000000000
      1893       631  TIP3  H2           17.3239796147       18.2592665413       18.9176362151  CLST         631          1.0000000000
      1894       632  TIP3  OH2          11.0495069624        1.9398725950        9.4411204640  CLST         632          1.0000000000
      1895       632  TIP3  H1           12.0286752445        1.8830686086        9.3569218716  CLST         632          1.0000000000
      1896       632  TIP3  H2           10.8005019420        1.7425678725        8.5307492851  CLST         632          1.0000000000
      1897       633  TIP3  OH2          25.8294980881        6.4033174236       10.5072798848  CLST         633          1.0000000000
      1898       633  TIP3  H1           26.1017353736        5.4921122515       10.5965094235  CLST         633          1.0000000000
      1899       633  TIP3  H2           24.8377111813        6.2535003540       10.3163986874  CLST         633          1.0000000000
      1900       634  TIP3  OH2          27.8398990161       23.1404523998        6.8034260737  CLST         634          1.0000000000
      1901       634  TIP3  H1           27.6645295042       22.3024538117        7.3647296282  CLST         634          1.0000000000
      1902       634  TIP3  H2           28.4373242007       23.6474506166        7.3300345331  CLST         634          1.0000000000
      1903       635  TIP3  OH2           2.7746838769        2.7348459610       28.0532880332  CLST         635          1.0000000000
      1904       635  TIP3  H1            2.4703121013        3.5953456288       27.7385029615  CLST         635          1.0000000000
      1905       635  TIP3  H2            2.4695882933        2.1239608837       27.3994930089  CLST         635          1.0000000000
      1906       636  TIP3  OH2           5.0040408961       27.7823128954       20.0803688306  CLST         636          1.0000000000
      1907       636  TIP3  H1            4.4544133549       27.9873346279       19.2977164579  CLST         636          1.0000000000
      1908       636  TIP3  H2            5.0770879617       28.6538833307       20.5090257599  CLST         636          1.0000000000
      1909       637  TIP3  OH2           3.6908914196       11.1301223788       19.6651556632  CLST         637          1.0000000000
      1910       637  TIP3  H1            4.2782780270       11.8200238920       20.0671746540  CLST         637          1.0000000000
      1911       637  TIP3  H2            3.6136327142       10.6533135263       20.5139713481  CLST         637          1.0000000000
      1912       638  TIP3  OH2           8.9137110837       17.9686266681       23.0839564940  CLST         638          1.0000000000
      1913       638  TIP3  H1            8.1422389789       17.5428228781       22.5825747178  CLST         638          1.0000000000
      1914       638  TIP3  H2            9.4675483610       18.0966460366       22.2944144040  CLST         638          1.0000000000
      1915       639  TIP3  OH2           7.4151628772       16.6562267486       21.0853978844  CLST         639          1.0000000000
      1916       639  TIP3  H1            6.4003642360       16.6001813477       21.0046615822  CLST         639          1.0000000000
      1917       639  TIP3  H2            7.5786056825       15.8199750165       20.5911728484  CLST         639          1.0000000000
      1918       640  TIP3  OH2          20.1880625568       27.0714948571       20.2038951916  CLST         640          1.0000000000
      1919       640  TIP3  H1           21.1033101228       27.0259853986       20.6756461275  CLST         640          1.0000000000
      1920       640  TIP3  H2           19.6223067571       27.0220283608       20.9211993304  CLST         640          1.0000000000
      1921       641  TIP3  OH2          16.4772465283       27.4928236942       16.9223250472  CLST         641          1.0000000000
      1922       641  TIP3  H1           16.4442483797       26.4957983982       16.6892253030  CLST         641          1.0000000000
      1923       641  TIP3  H2           17.4546167874       27.5654828547       17.0412106460  CLST         641          1.0000000000
      1924       642  TIP3  OH2          28.4343208760        1.7397518243       11.0000860369  CLST         642          1.0000000000
      1925       642  TIP3  H1           29.2215421977        1.3929189717       11.4886719217  CLST         642          1.0000000000
      1926       642  TIP3  H2           27.6802991818        1.9384725125       11.5649296731  CLST         642          1.0000000000
      1927       643  TIP3  OH2          16.2039943024       27.4633148865        3.6953345081  CLST         643          1.0000000000
      1928       643  TIP3  H1           17.0467753750       27.9088389955        3.9122373081  CLST         643          1.0000000000
      1929       643  TIP3  H2           15.5578074397       27.9305164087        4.2450609889  CLST         643          1.0000000000
      1930       644  TIP3  OH2          12.7593700719       27.3947579793        1.2196495193  CLST         644          1.0000000000
      1931       644  TIP3  H1           13.5750804512       27.9261485178        1.3494919474  CLST         644          1.0000000000
      1932       644  TIP3  H2           13.0169389268       26.8502546171        0.4856091910  CLST         644          1.0000000000
      1933       645  TIP3  OH2          23.4701416848        6.2015566539        8.9466624808  CLST         645          1.0000000000
      1934       645  TIP3  H1           23.2956547484        6.4013207263        8.0266227833  CLST         645          1.0000000000
      1935       645  TIP3  H2           23.6103648505        5.2714036801        8.8597187954  CLST         645          1.0000000000
      1936       646  TIP3  OH2           7.1449400379       18.8188362350       11.9615991951  CLST         646          1.0000000000
      1937       646  TIP3  H1            6.2693148572       18.7522449767       11.4950264816  CLST         646          1.0000000000
      1938       646  TIP3  H2            7.3989978765       17.8882769722       11.9939463520  CLST         646          1.0000000000
      1939       647  TIP3  OH2          17.0425748946       21.0012229956       22.7024509968  CLST         647          1.0000000000
      1940       647  TIP3  H1           16.4562452247       20.4440750933       23.2881472048  CLST         647          1.0000000000
      1941       647  TIP3  H2           17.7642270740       21.1175315103       23.3558547008  CLST         647          1.0000000000
      1942       648  TIP3  OH2          16.3301208009        3.5165253500       24.0461244042  CLST         648          1.0000000000
      1943       648  TIP3  H1           15.4495289026        3.7048994247       24.3474099049  CLST         648          1.0000000000
      1944       648  TIP3  H2           16.7415281515        3.7451194435       24.8986200058  CLST         648          1.0000000000
      1945       649  TIP3  OH2          28.6973132704       26.7018372782       22.9698949518  CLST         649          1.0000000000
      1946       649  TIP3  H1           29.3581222910       27.4059959684       23.1389979539  CLST         649          1.0000000000
      1947       649  TIP3  H2           29.2047330843       26.2193374794       22.2770824622  CLST         649          1.0000000000
      1948       650  TIP3  OH2          25.9176823164       26.9723854822       18.4668341472  CLST         650          1.0000000000
      1949       650  TIP3  H1           26.8179265463       27.0405456228       18.1033119641  CLST         650          1.0000000000
      1950       650  TIP3  H2           25.7735153580       27.8892853310       18.6849726798  CLST         650          1.0000000000
      1951       651  TIP3  OH2           0.9342169603       25.9965230237       14.8915531831  CLST         651          1.0000000000
      1952       651  TIP3  H1            0.2538217353       25.5827366976       14.3003494309  CLST         651          1.0000000000
      1953       651  TIP3  H2            0.5993013525       25.6253706460       15.7706924434  CLST         651          1.0000000000
      1954       652  TIP3  OH2           2.2157558048       21.1570282463       10.1424254711  CLST         652          1.0000000000
      1955       652  TIP3  H1            2.5558337152       21.7203251675       10.8573584481  CLST         652          1.0000000000
      1956       652  TIP3  H2            1.8837339679       21.9269408484        9.5957860117  CLST         652          1.0000000000
      1957       653  TIP3  OH2          13.4676829685        0.9675122182       27.7338584793  CLST         653          1.0000000000
      1958       653  TIP3  H1           12.5154028799        0.8287963626       27.9462337056  CLST         653          1.0000000000
      1959       653  TIP3  H2           13.4255152491        1.3005135209       26.8107726965  CLST         653          1.0000000000
      1960       654  TIP3  OH2          24.5779134917        9.2257997799       13.1643056956  CLST         654          1.0000000000
      1961       654  TIP3  H1           25.4107338819        9.5540502170       13.5422066624  CLST         654          1.0000000000
      1962       654  TIP3  H2           24.8943263633        8.7036137763       12.3768500142  CLST         654          1.0000000000
      1963       655  TIP3  OH2          26.0261774239        1.3828557399       12.6901968268  CLST         655          1.0000000000
      1964       655  TIP3  H1           26.0297463473        0.4357061824       12.3755770384  CLST         655          1.0000000000
      1965       655  TIP3  H2           25.0485671371        1.3892002537       12.8928756770  CLST         655          1.0000000000
      1966       656  TIP3  OH2          16.0989159920       25.7955445429       19.5856840126  CLST         656          1.0000000000
      1967       656  TIP3  H1           15.2878941943       26.3575996047       19.4280709473  CLST         656          1.0000000000
      1968       656  TIP3  H2           16.1711923213       25.2362957185       18.7946602302  CLST         656          1.0000000000
      1969       657  TIP3  OH2           4.4653495666       29.4787139019        5.4441437221  CLST         657          1.0000000000
      1970       657  TIP3  H1            5.1014025837       29.6240466974        6.1719723185  CLST         657          1.0000000000
      1971       657  TIP3  H2            3.9575118422       30.2773621992        5.4655772274  CLST         657          1.0000000000
      1972       658  TIP3  OH2          16.3604132451       23.0262676887       25.4939868654  CLST         658          1.0000000000
      1973       658  TIP3  H1           16.7372798156       23.7539571316       25.0088399068  CLST         658          1.0000000000
      1974       658  TIP3  H2           15.4284711898       23.1606181341       25.1459586642  CLST         658          1.0000000000
      1975       659  TIP3  OH2           9.1151970058       17.1035889576        9.8468226911  CLST         659          1.0000000000
      1976       659  TIP3  H1            8.9086192526       17.7552690522        9.1688116107  CLST         659          1.0000000000
      1977       659  TIP3  H2            8.2717845372       16.6779016974        9.9490783911  CLST         659          1.0000000000
      1978       660  TIP3  OH2          15.7737096828       21.2090362939        6.5237668308  CLST         660          1.0000000000
      1979       660  TIP3  H1           15.3623078920       20.4096271723        6.8720663480  CLST         660          1.0000000000
      1980       660  TIP3  H2           16.4582025623       21.3579433776        7.2270555546  CLST         660          1.0000000000
      1981       661  TIP3  OH2           2.9903673477        1.1224203981       25.5173100734  CLST         661          1.0000000000
      1982       661  TIP3  H1            2.7136935272        2.0357411162       25.3053009491  CLST         661          1.0000000000
      1983       661  TIP3  H2            2.1344251581        0.6788725195       25.5609799063  CLST         661          1.0000000000
      1984       662  TIP3  OH2          21.5759449398       25.1813882156        1.1212749064  CLST         662          1.0000000000
      1985       662  TIP3  H1           21.0679922259       24.6564941345        0.4739474544  CLST         662          1.0000000000
      1986       662  TIP3  H2           21.2936051805       26.0979932934        1.0198075803  CLST         662          1.0000000000
      1987       663  TIP3  OH2           6.2493137445       28.2142853310        3.4685138623  CLST         663          1.0000000000
      1988       663  TIP3  H1            5.6250606627       28.5895747334        4.1155481186  CLST         663          1.0000000000
      1989       663  TIP3  H2            5.9765211376       27.2826545545        3.3692732507  CLST         663          1.0000000000
      1990       664  TIP3  OH2          10.4424052128       15.6534856950        2.5641942213  CLST         664          1.0000000000
      1991       664  TIP3  H1           10.2844308292       16.2891391243        3.2377820462  CLST         664          1.0000000000
      1992       664  TIP3  H2           10.3394057866       14.8436059947        3.1131550372  CLST         664          1.0000000000
      1993       665  TIP3  OH2           9.7672614491       10.3381659251       16.3548309950  CLST         665          1.0000000000
      1994       665  TIP3  H1            9.1023471673        9.6532802944       16.4909632521  CLST         665          1.0000000000
      1995       665  TIP3  H2            9.3611800431       10.8657683225       15.5926566524  CLST         665          1.0000000000
      1996       666  TIP3  OH2          18.8968781416       22.8492532319       21.2977758877  CLST         666          1.0000000000
      1997       666  TIP3  H1           19.0162341904       23.5877295710       21.8962039369  CLST         666          1.0000000000
      1998       666  TIP3  H2           18.1297130072       22.4432905682       21.7296788835  CLST         666          1.0000000000
      1999       667  TIP3  OH2          19.2401751110        5.3823588521        7.7564504831  CLST         667          1.0000000000
      2000       667  TIP3  H1           18.9583608763        4.8524411979        8.5497063684  CLST         667          1.0000000000
      2001       667  TIP3  H2           19.6587508723        6.1805718276        8.2417691868  CLST         667          1.0000000000
      2002       668  TIP3  OH2          17.6379776392       -0.0510581045        0.1454648010  CLST         668          1.0000000000
      2003       668  TIP3  H1           17.3847583427        0.4196885801        0.9519697863  CLST         668          1.0000000000
      2004       668  TIP3  H2           17.1970568262        0.5187248292       -0.4887810786  CLST         668          1.0000000000
      2005       669  TIP3  OH2          26.6503785042       18.8585056280        5.1405896321  CLST         669          1.0000000000
      2006       669  TIP3  H1           26.2672688674       18.1420405692        4.5596007960  CLST         669          1.0000000000
      2007       669  TIP3  H2           26.7274706095       19.6683120050        4.5119569082  CLST         669          1.0000000000
      2008       670  TIP3  OH2          24.0268867384       28.0388251711        1.1717595785  CLST         670          1.0000000000
      2009       670  TIP3  H1           23.3857015620       28.7237793233        1.3753918016  CLST         670          1.0000000000
      2010       670  TIP3  H2           24.3125487796       28.3793922537        0.2650006349  CLST         670          1.0000000000
      2011       671  TIP3  OH2           3.9681067100       20.8959799782       19.2641127012  CLST         671          1.0000000000
      2012       671  TIP3  H1            3.5322813698       21.0486905181       20.1688287793  CLST         671          1.0000000000
      2013       671  TIP3  H2            4.9052383981       21.0388321300       19.3057099957  CLST         671          1.0000000000
      2014       672  TIP3  OH2          12.1017638778       17.7262822733        9.0584544373  CLST         672          1.0000000000
      2015       672  TIP3  H1           11.2273795213       17.3895209072        9.3289911003  CLST         672          1.0000000000
      2016       672  TIP3  H2           12.6487307008       17.3605680915        9.7613495528  CLST         672          1.0000000000
      2017       673  TIP3  OH2           6.9547139040       26.0052576504        6.8006844961  CLST         673          1.0000000000
      2018       673  TIP3  H1            7.5342976373       26.7664734382        6.8210454286  CLST         673          1.0000000000
      2019       673  TIP3  H2            7.5595770481       25.3835127081        7.2687684009  CLST         673          1.0000000000
      2020       674  TIP3  OH2          26.1365747679       29.6413827825        2.8905927625  CLST         674          1.0000000000
      2021       674  TIP3  H1           26.8691309522       29.3015060885        3.3372005988  CLST         674          1.0000000000
      2022       674  TIP3  H2           25.9802069228       28.9122371179        2.2428247566  CLST         674          1.0000000000
      2023       675  TIP3  OH2          20.7346884978        2.4381717300       27.0581999205  CLST         675          1.0000000000
      2024       675  TIP3  H1           21.3792962479        1.7085393799       26.9856595164  CLST         675          1.0000000000
      2025       675  TIP3  H2           20.1014223270        2.1890426667       27.7500619383  CLST         675          1.0000000000
      2026       676  TIP3  OH2          16.6219177950       30.3259351333       16.6707223730  CLST         676          1.0000000000
      2027       676  TIP3  H1           16.4656763795       29.3658388045       16.8125457273  CLST         676          1.0000000000
      2028       676  TIP3  H2           16.9524802321       30.6000293005       17.5206685119  CLST         676          1.0000000000
      2029       677  TIP3  OH2           1.6413803745       18.2536996026        2.2528127201  CLST         677          1.0000000000
      2030       677  TIP3  H1            1.9192814088       18.1073483928        1.3687999888  CLST         677          1.0000000000
      2031       677  TIP3  H2            1.2265586076       17.3936028604        2.4690543460  CLST         677          1.0000000000
      2032       678  TIP3  OH2          11.4951423721       23.3499998618       21.9245227934  CLST         678          1.0000000000
      2033       678  TIP3  H1           12.4274524205       23.0333864397       21.8450492447  CLST         678          1.0000000000
      2034       678  TIP3  H2           11.4414692476       23.9743935569       21.2273944493  CLST         678          1.0000000000
      2035       679  TIP3  OH2           7.4843375057       20.4559309925       15.9030422299  CLST         679          1.0000000000
      2036       679  TIP3  H1            7.4294417634       21.1013562203       15.2591625561  CLST         679          1.0000000000
      2037       679  TIP3  H2            6.5050974401       20.3986582413       16.0541460990  CLST         679          1.0000000000
      2038       680  TIP3  OH2           9.8268697140       21.8237305809       28.6002521871  CLST         680          1.0000000000
      2039       680  TIP3  H1            9.9934696126       20.8547986134       28.5237865285  CLST         680          1.0000000000
      2040       680  TIP3  H2            9.4077412625       21.8730787213       27.7589020466  CLST         680          1.0000000000
      2041       681  TIP3  OH2           7.4219625142        9.3789082838       11.0595874861  CLST         681          1.0000000000
      2042       681  TIP3  H1            7.4677304771        8.4325015764       11.0879997468  CLST         681          1.0000000000
      2043       681  TIP3  H2            8.4279839200        9.5170807989       11.0588218909  CLST         681          1.0000000000
      2044       682  TIP3  OH2           7.8687345912       14.0351178790        1.6917621783  CLST         682          1.0000000000
      2045       682  TIP3  H1            7.1552417153       13.8778948954        1.1151193731  CLST         682          1.0000000000
      2046       682  TIP3  H2            7.5975186805       14.8805766389        2.0842298104  CLST         682          1.0000000000
      2047       683  TIP3  OH2           3.3524145223       11.5278520154       15.2623103086  CLST         683          1.0000000000
      2048       683  TIP3  H1            3.2344553782       11.8674447533       16.1882842057  CLST         683          1.0000000000
      2049       683  TIP3  H2            3.1593720408       10.5995199130       15.3702603897  CLST         683          1.0000000000
      2050       684  TIP3  OH2          12.7267369647        2.8057888583       17.9398532396  CLST         684          1.0000000000
      2051       684  TIP3  H1           12.3545324465        2.0119578848       18.4403966417  CLST         684          1.0000000000
      2052       684  TIP3  H2           13.3166410938        3.1947201254       18.5806465623  CLST         684          1.0000000000
      2053       685  TIP3  OH2           3.7609303933       13.4424827215        2.1114444778  CLST         685          1.0000000000
      2054       685  TIP3  H1            4.1912300865       12.4972487140        1.9449466601  CLST         685          1.0000000000
      2055       685  TIP3  H2            2.8773180626       13.2055872246        1.9706474102  CLST         685          1.0000000000
      2056       686  TIP3  OH2          28.3553879900       18.5246637163       24.6832105702  CLST         686          1.0000000000
      2057       686  TIP3  H1           28.5115469697       18.1219407644       25.5756205175  CLST         686          1.0000000000
      2058       686  TIP3  H2           27.9316487491       17.7348784372       24.1638068689  CLST         686          1.0000000000
      2059       687  TIP3  OH2           2.2648113041       11.0907282412       24.8335396482  CLST         687          1.0000000000
      2060       687  TIP3  H1            1.8031600779       10.9612744857       25.7282131539  CLST         687          1.0000000000
      2061       687  TIP3  H2            2.9481843814       11.6780801823       25.0934543440  CLST         687          1.0000000000
      2062       688  TIP3  OH2          25.5197337737       29.3000570040       20.0258694448  CLST         688          1.0000000000
      2063       688  TIP3  H1           25.7704933944       29.5723835852       20.9332763401  CLST         688          1.0000000000
      2064       688  TIP3  H2           26.3128633986       29.5374916702       19.5291577432  CLST         688          1.0000000000
      2065       689  TIP3  OH2          18.5297672010       27.7146265624       22.8907380280  CLST         689          1.0000000000
      2066       689  TIP3  H1           17.9179756588       27.9225650112       23.6674473709  CLST         689          1.0000000000
      2067       689  TIP3  H2           18.1339014386       28.3046459291       22.2410507944  CLST         689          1.0000000000
      2068       690  TIP3  OH2           9.1654012692       17.8457339000        3.9843222638  CLST         690          1.0000000000
      2069       690  TIP3  H1            9.4069227617       18.0849730479        4.8757802585  CLST         690          1.0000000000
      2070       690  TIP3  H2            9.6650522478       18.6205111840        3.5434764459  CLST         690          1.0000000000
      2071       691  TIP3  OH2          29.3193737549       10.1055995194       13.7638460273  CLST         691          1.0000000000
      2072       691  TIP3  H1           29.8258106980       10.8839744609       13.4256969351  CLST         691          1.0000000000
      2073       691  TIP3  H2           29.9373934729       10.0525634330       14.5163396275  CLST         691          1.0000000000
      2074       692  TIP3  OH2           1.5419850340       23.5267823984        8.7376471959  CLST         692          1.0000000000
      2075       692  TIP3  H1            0.5966968058       23.7640340620        8.7470704025  CLST         692          1.0000000000
      2076       692  TIP3  H2            1.7832269454       24.4325157224        9.0159419610  CLST         692          1.0000000000
      2077       693  TIP3  OH2          21.1130387233       26.0997352171       27.4536519279  CLST         693          1.0000000000
      2078       693  TIP3  H1           21.8731363645       26.0590322126       28.0765208864  CLST         693          1.0000000000
      2079       693  TIP3  H2           21.2300949851       26.8725738089       26.9976224554  CLST         693          1.0000000000
      2080       694  TIP3  OH2          28.6676700195       11.6267947861        5.7249718902  CLST         694          1.0000000000
      2081       694  TIP3  H1           27.9611864479       12.1754630082        5.3237485319  CLST         694          1.0000000000
      2082       694  TIP3  H2           29.3091609254       12.2838866952        5.8358751998  CLST         694          1.0000000000
      2083       695  TIP3  OH2           1.7621007617       10.3885197352        7.5835155116  CLST         695          1.0000000000
      2084       695  TIP3  H1            1.1946025578       10.1290678319        6.8180199728  CLST         695          1.0000000000
      2085       695  TIP3  H2            1.2011515185       10.3109571295        8.3838837294  CLST         695          1.0000000000
      2086       696  TIP3  OH2          26.0089571558        3.1562066023       24.1794712581  CLST         696          1.0000000000
      2087       696  TIP3  H1           26.6132718777        3.9210914055       24.1161597337  CLST         696          1.0000000000
      2088       696  TIP3  H2           25.6716431154        3.1598934666       25.0291634444  CLST         696          1.0000000000
      2089       697  TIP3  OH2           2.6511140986        5.5635896809       11.9571700197  CLST         697          1.0000000000
      2090       697  TIP3  H1            1.9859501570        5.5679054987       11.2040614945  CLST         697          1.0000000000
      2091       697  TIP3  H2            3.5273103287        5.6537230197       11.4768022512  CLST         697          1.0000000000
      2092       698  TIP3  OH2          26.8188023307        5.0575293592       29.1438869184  CLST         698          1.0000000000
      2093       698  TIP3  H1           26.7209352608        4.1046431621       28.8695702576  CLST         698          1.0000000000
      2094       698  TIP3  H2           25.8843178915        5.4006487644       29.1586514191  CLST         698          1.0000000000
      2095       699  TIP3  OH2          28.9777270506       25.6504100554        3.5400291585  CLST         699          1.0000000000
      2096       699  TIP3  H1           28.1009380904       26.0777464834        3.5776091290  CLST         699          1.0000000000
      2097       699  TIP3  H2           29.2475357502       25.5503492127        2.5962465814  CLST         699          1.0000000000
      2098       700  TIP3  OH2          25.1383370990       21.9828900581        8.9811675833  CLST         700          1.0000000000
      2099       700  TIP3  H1           24.9926897058       22.5322015005        8.1785703050  CLST         700          1.0000000000
      2100       700  TIP3  H2           25.9816234981       21.6284334861        8.7648608182  CLST         700          1.0000000000
      2101       701  TIP3  OH2          16.2471959475       10.3589903514       30.3768291883  CLST         701          1.0000000000
      2102       701  TIP3  H1           16.3640726361        9.5340357947       29.8250784485  CLST         701          1.0000000000
      2103       701  TIP3  H2           15.2785750647       10.3223928438       30.6701928589  CLST         701          1.0000000000
      2104       702  TIP3  OH2          24.7158097281       20.7507458479       17.8237313031  CLST         702          1.0000000000
      2105       702  TIP3  H1           24.7876804673       20.4365083541       18.7587116612  CLST         702          1.0000000000
      2106       702  TIP3  H2           23.7171751826       20.7850240925       17.7070811500  CLST         702          1.0000000000
      2107       703  TIP3  OH2           3.6921690326        6.1065855859       25.9258346778  CLST         703          1.0000000000
      2108       703  TIP3  H1            2.8833143139        5.5790278339       25.9060476705  CLST         703          1.0000000000
      2109       703  TIP3  H2            3.3801355124        7.0031268984       26.1876214530  CLST         703          1.0000000000
      2110       704  TIP3  OH2          20.2788059797        5.1593190899       11.9139230166  CLST         704          1.0000000000
      2111       704  TIP3  H1           20.4399530258        5.5838171933       12.7970829925  CLST         704          1.0000000000
      2112       704  TIP3  H2           19.9575183765        5.9139809969       11.4350721993  CLST         704          1.0000000000
      2113       705  TIP3  OH2          29.6212744112       21.2826803573       23.1811325577  CLST         705          1.0000000000
      2114       705  TIP3  H1           29.3396378768       20.3945117759       22.9247024239  CLST         705          1.0000000000
      2115       705  TIP3  H2           29.9037584120       21.6240249360       22.3088836453  CLST         705          1.0000000000
      2116       706  TIP3  OH2          28.4635955578       28.5290691624        4.5646659611  CLST         706          1.0000000000
      2117       706  TIP3  H1           29.1628583483       29.1710029230        4.7758558350  CLST         706          1.0000000000
      2118       706  TIP3  H2           29.0718068537       27.8380070115        4.2761822857  CLST         706          1.0000000000
      2119       707  TIP3  OH2           8.6812009049       11.0322286106        7.3433999172  CLST         707          1.0000000000
      2120       707  TIP3  H1            8.6098610138       11.4237002388        6.4309685587  CLST         707          1.0000000000
      2121       707  TIP3  H2            7.8058710682       10.5873406708        7.3471321804  CLST         707          1.0000000000
      2122       708  TIP3  OH2          29.3822428032       22.5920378388       17.6777431043  CLST         708          1.0000000000
      2123       708  TIP3  H1           28.6977645136       22.3500923515       17.0647798461  CLST         708          1.0000000000
      2124       708  TIP3  H2           29.8242104209       23.3431139232       17.1835145139  CLST         708          1.0000000000
      2125       709  TIP3  OH2          24.0180921850       14.4059859658        0.7051946858  CLST         709          1.0000000000
      2126       709  TIP3  H1           24.8958753164       14.1019397445        0.8291867207  CLST         709          1.0000000000
      2127       709  TIP3  H2           23.8166247749       14.8350491206        1.5443904240  CLST         709          1.0000000000
      2128       710  TIP3  OH2          29.5229876070       14.1426231634       19.4473011350  CLST         710          1.0000000000
      2129       710  TIP3  H1           30.2969998717       14.2355926793       18.8995334558  CLST         710          1.0000000000
      2130       710  TIP3  H2           28.9853093903       13.5305780261       18.8692008025  CLST         710          1.0000000000
      2131       711  TIP3  OH2          11.9140224337       18.0205357118       19.2792028281  CLST         711          1.0000000000
      2132       711  TIP3  H1           11.9230096766       17.0542214853       19.4127704177  CLST         711          1.0000000000
      2133       711  TIP3  H2           11.6474847513       18.0614945398       18.3397166076  CLST         711          1.0000000000
      2134       712  TIP3  OH2          26.6357837552       19.6427191311       11.7621416404  CLST         712          1.0000000000
      2135       712  TIP3  H1           25.8302074031       20.0026650611       11.2665254044  CLST         712          1.0000000000
      2136       712  TIP3  H2           27.3835821527       19.9270010183       11.2206987340  CLST         712          1.0000000000
      2137       713  TIP3  OH2           7.1414117064       30.3848883261        6.4047561640  CLST         713          1.0000000000
      2138       713  TIP3  H1            7.4778907395       30.4570814533        7.2894119621  CLST         713          1.0000000000
      2139       713  TIP3  H2            7.4966664123       29.5345181872        6.0648835332  CLST         713          1.0000000000
      2140       714  TIP3  OH2           4.8780857372       12.5691685865        4.4781695002  CLST         714          1.0000000000
      2141       714  TIP3  H1            4.2686003468       12.8429178562        3.8100635936  CLST         714          1.0000000000
      2142       714  TIP3  H2            4.4280479090       12.7269685509        5.2814306872  CLST         714          1.0000000000
      2143       715  TIP3  OH2          21.2483222274       20.7878176830        1.7298723148  CLST         715          1.0000000000
      2144       715  TIP3  H1           20.5830264474       21.4997933916        1.5961330964  CLST         715          1.0000000000
      2145       715  TIP3  H2           20.6981719444       20.3007261632        2.3934100443  CLST         715          1.0000000000
      2146       716  TIP3  OH2          16.5594877872       16.6504251634       30.2816010959  CLST         716          1.0000000000
      2147       716  TIP3  H1           15.8848077867       15.9955591981       30.2491177725  CLST         716          1.0000000000
      2148       716  TIP3  H2           16.4757580665       17.2138250705       29.5206602813  CLST         716          1.0000000000
      2149       717  TIP3  OH2          24.2208880041       18.3108681234        2.4059820416  CLST         717          1.0000000000
      2150       717  TIP3  H1           24.0040359317       18.9137802002        1.7609905806  CLST         717          1.0000000000
      2151       717  TIP3  H2           23.5325888129       17.6757379699        2.1811650876  CLST         717          1.0000000000
      2152       718  TIP3  OH2          19.3780385616        7.4933937336       13.4244078769  CLST         718          1.0000000000
      2153       718  TIP3  H1           18.8872821672        8.0896247374       14.0243063259  CLST         718          1.0000000000
      2154       718  TIP3  H2           19.9203497949        8.1412431048       12.9584219616  CLST         718          1.0000000000
      2155       719  TIP3  OH2          10.5279576666       23.0541389889        2.9240418784  CLST         719          1.0000000000
      2156       719  TIP3  H1           11.2321713174       23.5824624775        3.3681651593  CLST         719          1.0000000000
      2157       719  TIP3  H2           10.7611808897       23.1455618528        1.9736238582  CLST         719          1.0000000000
      2158       720  TIP3  OH2          25.4235325956       13.2174655327       21.9044502527  CLST         720          1.0000000000
      2159       720  TIP3  H1           26.4469896740       13.1802226772       21.9945600612  CLST         720          1.0000000000
      2160       720  TIP3  H2           25.2927359011       13.5959801857       22.8250591165  CLST         720          1.0000000000
      2161       721  TIP3  OH2           3.9610023099       24.2667055804       20.2173058150  CLST         721          1.0000000000
      2162       721  TIP3  H1            3.9879641829       24.3435817507       21.2007941274  CLST         721          1.0000000000
      2163       721  TIP3  H2            4.8345716692       23.8833099628       20.0442463484  CLST         721          1.0000000000
      2164       722  TIP3  OH2          10.2434714996       27.8600061613        2.1365804989  CLST         722          1.0000000000
      2165       722  TIP3  H1            9.8484629906       27.1967477358        1.6552789262  CLST         722          1.0000000000
      2166       722  TIP3  H2           11.1510180154       27.9033492581        1.7165218126  CLST         722          1.0000000000
      2167       723  TIP3  OH2           0.3686298726       13.4108026009        5.9886448235  CLST         723          1.0000000000
      2168       723  TIP3  H1            0.6066628001       14.3104133295        5.5826365278  CLST         723          1.0000000000
      2169       723  TIP3  H2            1.2718880413       13.0506517647        6.0680659405  CLST         723          1.0000000000
      2170       724  TIP3  OH2           8.4229214028       21.9275680887       26.2449580144  CLST         724          1.0000000000
      2171       724  TIP3  H1            8.3752634542       21.1336923295       25.6262747945  CLST         724          1.0000000000
      2172       724  TIP3  H2            8.1605038151       22.6537261491       25.6600336199  CLST         724          1.0000000000
      2173       725  TIP3  OH2          29.3507763777       30.1750529960        2.3182998724  CLST         725          1.0000000000
      2174       725  TIP3  H1           28.7356232445       29.4377326184        2.4926723859  CLST         725          1.0000000000
      2175       725  TIP3  H2           28.8198936791       30.7882376525        1.7682733640  CLST         725          1.0000000000
      2176       726  TIP3  OH2          15.9343821641       10.7296638546        6.0432266745  CLST         726          1.0000000000
      2177       726  TIP3  H1           15.1132137063       10.8420190806        5.4651746667  CLST         726          1.0000000000
      2178       726  TIP3  H2           16.3388735401       11.6127719875        5.9475267940  CLST         726          1.0000000000
      2179       727  TIP3  OH2          25.9868129768       16.6062320543       29.8246943051  CLST         727          1.0000000000
      2180       727  TIP3  H1           26.2642880843       16.2114031610       30.6582307940  CLST         727          1.0000000000
      2181       727  TIP3  H2           26.4317256147       17.4690995369       29.8746770568  CLST         727          1.0000000000
      2182       728  TIP3  OH2          22.2057656535        3.0825288618       29.4992532273  CLST         728          1.0000000000
      2183       728  TIP3  H1           22.7806255582        2.2460608474       29.7068643168  CLST         728          1.0000000000
      2184       728  TIP3  H2           21.2737641313        2.8469239737       29.3857745589  CLST         728          1.0000000000
      2185       729  TIP3  OH2          10.4928449865       20.0176711348        2.7660986091  CLST         729          1.0000000000
      2186       729  TIP3  H1           10.6557044498       20.9504365691        2.7227921410  CLST         729          1.0000000000
      2187       729  TIP3  H2           11.4141856668       19.6256194780        2.8066552339  CLST         729          1.0000000000
      2188       730  TIP3  OH2          25.9732161744       10.8928028594       24.9590434199  CLST         730          1.0000000000
      2189       730  TIP3  H1           26.2199908199       10.1062953344       24.4260569268  CLST         730          1.0000000000
      2190       730  TIP3  H2           25.0840471038       10.9894157372       24.5067580216  CLST         730          1.0000000000
      2191       731  TIP3  OH2          13.1903706619       12.5671729304       25.7623614745  CLST         731          1.0000000000
      2192       731  TIP3  H1           13.7425305241       13.0324946226       25.0822328514  CLST         731          1.0000000000
      2193       731  TIP3  H2           12.7867684492       11.8914586313       25.2657919019  CLST         731          1.0000000000
      2194       732  TIP3  OH2          27.6356976360       28.9146319582       28.3536990121  CLST         732          1.0000000000
      2195       732  TIP3  H1           27.1492956234       29.1171680495       29.1920827711  CLST         732          1.0000000000
      2196       732  TIP3  H2           26.9257398510       28.9713508677       27.6375208219  CLST         732          1.0000000000
      2197       733  TIP3  OH2           5.2464390219        2.5282263934       13.0044755626  CLST         733          1.0000000000
      2198       733  TIP3  H1            5.0761212356        1.7162202466       12.4808816310  CLST         733          1.0000000000
      2199       733  TIP3  H2            4.5015775061        2.4746329139       13.5996374616  CLST         733          1.0000000000
      2200       734  TIP3  OH2           8.5977562931       28.2399256181        5.8797963555  CLST         734          1.0000000000
      2201       734  TIP3  H1            8.3176620570       27.6641099109        5.0788429119  CLST         734          1.0000000000
      2202       734  TIP3  H2            9.5407612568       28.1573533384        5.8005574522  CLST         734          1.0000000000
      2203       735  TIP3  OH2          19.3846293742       17.6729012770        1.1179044874  CLST         735          1.0000000000
      2204       735  TIP3  H1           19.2582774404       18.3536707506        1.8919953060  CLST         735          1.0000000000
      2205       735  TIP3  H2           18.5002451709       17.5119282402        0.7493862449  CLST         735          1.0000000000
      2206       736  TIP3  OH2          13.4120955936        2.4938205153        2.9071922583  CLST         736          1.0000000000
      2207       736  TIP3  H1           13.9238822764        2.7365508043        2.1018112847  CLST         736          1.0000000000
      2208       736  TIP3  H2           12.7945571118        1.9127993560        2.4699703903  CLST         736          1.0000000000
      2209       737  TIP3  OH2          11.5306527939       28.2039075830        8.0340107138  CLST         737          1.0000000000
      2210       737  TIP3  H1           11.2389004331       28.1207035579        7.1013309285  CLST         737          1.0000000000
      2211       737  TIP3  H2           11.7411994502       29.1524472067        7.9585008481  CLST         737          1.0000000000
      2212       738  TIP3  OH2          10.4572693505        1.1332063782       14.1973230470  CLST         738          1.0000000000
      2213       738  TIP3  H1            9.5661708060        1.0413280377       14.5108048304  CLST         738          1.0000000000
      2214       738  TIP3  H2           10.6484760850        0.2317268074       14.3648454456  CLST         738          1.0000000000
      2215       739  TIP3  OH2          16.7244030153        1.4715020708       10.2886892444  CLST         739          1.0000000000
      2216       739  TIP3  H1           16.0163682870        1.7221217900       10.9126320495  CLST         739          1.0000000000
      2217       739  TIP3  H2           16.2928659664        0.7648512762        9.7542904029  CLST         739          1.0000000000
      2218       740  TIP3  OH2           6.2127004451       15.8321244675       25.3762722447  CLST         740          1.0000000000
      2219       740  TIP3  H1            5.4805989620       15.4652162708       24.8876022903  CLST         740          1.0000000000
      2220       740  TIP3  H2            7.0203650531       15.5065390403       24.9474807002  CLST         740          1.0000000000
      2221       741  TIP3  OH2          11.6307211188        5.1081460638        9.3566537198  CLST         741          1.0000000000
      2222       741  TIP3  H1           12.5227325424        5.3556540157        9.6567041930  CLST         741          1.0000000000
      2223       741  TIP3  H2           11.6560125375        4.1298133353        9.3431698990  CLST         741          1.0000000000
      2224       742  TIP3  OH2           8.2750947653       20.6043937920       23.9904391530  CLST         742          1.0000000000
      2225       742  TIP3  H1            8.5478045091       19.6988034688       23.8882580497  CLST         742          1.0000000000
      2226       742  TIP3  H2            7.6984048832       20.5756304891       23.2438355003  CLST         742          1.0000000000
      2227       743  TIP3  OH2          22.9684005251       29.9790703271       19.4415086798  CLST         743          1.0000000000
      2228       743  TIP3  H1           23.2574056801       30.8998813812       19.4920197290  CLST         743          1.0000000000
      2229       743  TIP3  H2           23.8440400793       29.5131032630       19.4504123671  CLST         743          1.0000000000
      2230       744  TIP3  OH2          24.0625967933        3.5595533496        5.4935332748  CLST         744          1.0000000000
      2231       744  TIP3  H1           24.9339522158        3.1973043006        5.5530750454  CLST         744          1.0000000000
      2232       744  TIP3  H2           24.2296332905        4.4642836876        5.7516492549  CLST         744          1.0000000000
      2233       745  TIP3  OH2           0.2839363669       21.8950527107        6.8417348651  CLST         745          1.0000000000
      2234       745  TIP3  H1            0.7659150096       21.0531229810        7.0817086503  CLST         745          1.0000000000
      2235       745  TIP3  H2            0.2426770688       22.3462213793        7.7217662786  CLST         745          1.0000000000
      2236       746  TIP3  OH2          22.6093288928       25.7098332114       24.3554954652  CLST         746          1.0000000000
      2237       746  TIP3  H1           22.4551607086       24.8849979580       23.8412122474  CLST         746          1.0000000000
      2238       746  TIP3  H2           22.1410179542       26.3574370648       23.8111942640  CLST         746          1.0000000000
      2239       747  TIP3  OH2          11.3729962154       12.0103277737        2.2249757716  CLST         747          1.0000000000
      2240       747  TIP3  H1           10.6190267844       12.5154488854        2.5973803812  CLST         747          1.0000000000
      2241       747  TIP3  H2           11.5778544087       11.5289238403        3.0222248706  CLST         747          1.0000000000
      2242       748  TIP3  OH2           3.6711297092        4.9919972348        8.6388721506  CLST         748          1.0000000000
      2243       748  TIP3  H1            4.2873270915        5.0684153703        9.4206694280  CLST         748          1.0000000000
      2244       748  TIP3  H2            3.7255978569        5.8365396434        8.2147904158  CLST         748          1.0000000000
      2245       749  TIP3  OH2          10.9983735175        9.4549057815        6.3825810229  CLST         749          1.0000000000
      2246       749  TIP3  H1           10.8910569978        8.7047602286        6.9504826532  CLST         749          1.0000000000
      2247       749  TIP3  H2           10.7001231361       10.2730499409        6.9110153689  CLST         749          1.0000000000
      2248       750  TIP3  OH2          15.8667134980       12.3279033868       22.6722425265  CLST         750          1.0000000000
      2249       750  TIP3  H1           15.0407258269       12.0358656161       22.3598129389  CLST         750          1.0000000000
      2250       750  TIP3  H2           16.4251751751       11.8870431978       22.0144853040  CLST         750          1.0000000000
      2251       751  TIP3  OH2           8.5488519067        4.3843614012       25.9482478622  CLST         751          1.0000000000
      2252       751  TIP3  H1            7.8949684887        3.7338163375       25.6257503245  CLST         751          1.0000000000
      2253       751  TIP3  H2            9.0316153397        3.8056452122       26.6185237736  CLST         751          1.0000000000
      2254       752  TIP3  OH2          18.0776266767       13.2467686640        2.3399138510  CLST         752          1.0000000000
      2255       752  TIP3  H1           17.7832412944       13.2134845542        1.4603810389  CLST         752          1.0000000000
      2256       752  TIP3  H2           17.9394897073       12.3657913265        2.5915586384  CLST         752          1.0000000000
      2257       753  TIP3  OH2           8.5208871145        2.5415980413       23.1856688267  CLST         753          1.0000000000
      2258       753  TIP3  H1            8.2493385632        3.4003131839       22.7481591389  CLST         753          1.0000000000
      2259       753  TIP3  H2            7.7977345634        2.3794582915       23.8647728503  CLST         753          1.0000000000
      2260       754  TIP3  OH2          11.3599341382        2.3715866916       24.2098900864  CLST         754          1.0000000000
      2261       754  TIP3  H1           11.2461114682        2.5522752969       25.1644037024  CLST         754          1.0000000000
      2262       754  TIP3  H2           10.4228158842        2.4365719445       23.9260250877  CLST         754          1.0000000000
      2263       755  TIP3  OH2           7.5221834226       28.6091768220       30.1497654916  CLST         755          1.0000000000
      2264       755  TIP3  H1            6.5847024066       28.4005391353       30.2647234009  CLST         755          1.0000000000
      2265       755  TIP3  H2            7.4767296846       29.6010661057       30.2045156397  CLST         755          1.0000000000
      2266       756  TIP3  OH2          17.5265975990        6.4391177271        5.7979487602  CLST         756          1.0000000000
      2267       756  TIP3  H1           16.8535208885        5.7098547936        5.6081459703  CLST         756          1.0000000000
      2268       756  TIP3  H2           18.1639675763        6.1828645132        6.5919936365  CLST         756          1.0000000000
      2269       757  TIP3  OH2          25.6131647817       25.2648038557       28.0732991946  CLST         757          1.0000000000
      2270       757  TIP3  H1           26.1574625063       25.0232135079       27.3263218628  CLST         757          1.0000000000
      2271       757  TIP3  H2           24.9183248987       25.7471122051       27.5806634449  CLST         757          1.0000000000
      2272       758  TIP3  OH2          12.1292150248        4.3670130031       29.3246081335  CLST         758          1.0000000000
      2273       758  TIP3  H1           12.2674407423        4.9739141448       30.0837321630  CLST         758          1.0000000000
      2274       758  TIP3  H2           12.6727182971        3.6149317738       29.4986776022  CLST         758          1.0000000000
      2275       759  TIP3  OH2          22.7143060473       11.7015616915       19.1385732088  CLST         759          1.0000000000
      2276       759  TIP3  H1           22.8192103699       11.9119175557       18.2127705333  CLST         759          1.0000000000
      2277       759  TIP3  H2           23.5901197877       11.4737231482       19.4068387949  CLST         759          1.0000000000
      2278       760  TIP3  OH2           8.0620689416       14.4262769085       24.0560050837  CLST         760          1.0000000000
      2279       760  TIP3  H1            8.5693896866       14.6986302219       23.2397704294  CLST         760          1.0000000000
      2280       760  TIP3  H2            7.5654463223       13.6329694529       23.6447316767  CLST         760          1.0000000000
      2281       761  TIP3  OH2          23.3120320907        8.1031416111       18.8324822773  CLST         761          1.0000000000
      2282       761  TIP3  H1           22.4682397675        7.8350802484       18.5487085381  CLST         761          1.0000000000
      2283       761  TIP3  H2           23.1878833700        8.1844953606       19.7837405075  CLST         761          1.0000000000
      2284       762  TIP3  OH2           7.7319346037       24.1173736461       17.3136160943  CLST         762          1.0000000000
      2285       762  TIP3  H1            7.1146810129       23.5176013188       17.7549298699  CLST         762          1.0000000000
      2286       762  TIP3  H2            7.5667890456       24.9885480085       17.7859211853  CLST         762          1.0000000000
      2287       763  TIP3  OH2          29.3823104812       24.1197807175        8.9729091029  CLST         763          1.0000000000
      2288       763  TIP3  H1           29.0967854130       24.9345407147        8.5723297274  CLST         763          1.0000000000
      2289       763  TIP3  H2           28.7858246909       24.0654086952        9.7359511985  CLST         763          1.0000000000
      2290       764  TIP3  OH2           8.9201094560       18.8250057478        0.8351768659  CLST         764          1.0000000000
      2291       764  TIP3  H1            8.2555609905       19.5713653399        0.8027106913  CLST         764          1.0000000000
      2292       764  TIP3  H2            9.6789684834       19.2663482877        1.3366514855  CLST         764          1.0000000000
      2293       765  TIP3  OH2          15.4282104052       18.0757948497       13.1861587055  CLST         765          1.0000000000
      2294       765  TIP3  H1           16.0382202691       18.4904709536       13.8367959333  CLST         765          1.0000000000
      2295       765  TIP3  H2           15.0767250787       18.8192366339       12.6112420425  CLST         765          1.0000000000
      2296       766  TIP3  OH2          11.5559137934       21.9135314910       18.2840994839  CLST         766          1.0000000000
      2297       766  TIP3  H1           10.8451059574       22.3693948661       17.7830305210  CLST         766          1.0000000000
      2298       766  TIP3  H2           11.1318328895       21.1583108387       18.7017052133  CLST         766          1.0000000000
      2299       767  TIP3  OH2           2.2950317008       12.4359851179       17.6233599354  CLST         767          1.0000000000
      2300       767  TIP3  H1            2.5155142620       11.9762634693       18.4473386213  CLST         767          1.0000000000
      2301       767  TIP3  H2            2.1925982114       13.4292344431       17.9130662545  CLST         767          1.0000000000
      2302       768  TIP3  OH2           7.7109153312        7.1175760629        8.5499499145  CLST         768          1.0000000000
      2303       768  TIP3  H1            8.7053749527        7.1304506253        8.4305671777  CLST         768          1.0000000000
      2304       768  TIP3  H2            7.6550751461        6.1421897675        8.5494361294  CLST         768          1.0000000000
      2305       769  TIP3  OH2          18.4128357478        3.0936286095        1.0420006357  CLST         769          1.0000000000
      2306       769  TIP3  H1           19.2960565596        3.0262327209        1.4082294095  CLST         769          1.0000000000
      2307       769  TIP3  H2           17.7816870178        3.2009149143        1.7804113696  CLST         769          1.0000000000
      2308       770  TIP3  OH2          10.2039106991       25.6322491418       11.3873672375  CLST         770          1.0000000000
      2309       770  TIP3  H1           10.0181311782       26.5157966388       10.9960665180  CLST         770          1.0000000000
      2310       770  TIP3  H2           11.1106987204       25.5676355355       11.3735200583  CLST         770          1.0000000000
      2311       771  TIP3  OH2          19.9196783076        1.1375549000       24.6301917581  CLST         771          1.0000000000
      2312       771  TIP3  H1           20.5509273238        0.4565219138       24.6807904126  CLST         771          1.0000000000
      2313       771  TIP3  H2           20.0703470589        1.6050290957       25.4210306700  CLST         771          1.0000000000
      2314       772  TIP3  OH2          13.0339083053       17.7529428373       23.5688857002  CLST         772          1.0000000000
      2315       772  TIP3  H1           13.2755943550       18.6895355040       23.4356108293  CLST         772          1.0000000000
      2316       772  TIP3  H2           12.4037873514       17.7706731489       24.3057648970  CLST         772          1.0000000000
      2317       773  TIP3  OH2          12.1041296025       25.4854592279        3.5566617405  CLST         773          1.0000000000
      2318       773  TIP3  H1           11.7576402657       26.1046978999        4.2701677331  CLST         773          1.0000000000
      2319       773  TIP3  H2           12.8312666935       25.9948594210        3.1367581119  CLST         773          1.0000000000
      2320       774  TIP3  OH2          22.5874290914       30.0741693852       24.3892903391  CLST         774          1.0000000000
      2321       774  TIP3  H1           23.4579124705       29.5939491407       24.2690610417  CLST         774          1.0000000000
      2322       774  TIP3  H2           22.8947018671       31.0181185205       24.5058961471  CLST         774          1.0000000000
      2323       775  TIP3  OH2           2.6823937936        1.5763854904        5.3929551874  CLST         775          1.0000000000
      2324       775  TIP3  H1            2.6627188532        1.4356670348        6.3421532856  CLST         775          1.0000000000
      2325       775  TIP3  H2            3.1535493200        2.4669655675        5.3678600638  CLST         775          1.0000000000
      2326       776  TIP3  OH2          30.3611834013        9.5208412807        5.6676093548  CLST         776          1.0000000000
      2327       776  TIP3  H1           29.6137318054       10.1313787712        5.7180389399  CLST         776          1.0000000000
      2328       776  TIP3  H2           29.9182893014        8.6921223238        5.4639434918  CLST         776          1.0000000000
      2329       777  TIP3  OH2          17.2251788164       20.0803213661        0.1203227068  CLST         777          1.0000000000
      2330       777  TIP3  H1           17.5209076123       21.0150512464        0.2656419542  CLST         777          1.0000000000
      2331       777  TIP3  H2           16.6035787443       19.8511869542        0.8559052995  CLST         777          1.0000000000
      2332       778  TIP3  OH2          18.6280417169        5.7324758853       29.9148070746  CLST         778          1.0000000000
      2333       778  TIP3  H1           18.7946936560        4.9142978695       30.3778134220  CLST         778          1.0000000000
      2334       778  TIP3  H2           18.6627931081        5.4475137400       29.0065927244  CLST         778          1.0000000000
      2335       779  TIP3  OH2          24.1424787462        5.2813567714       28.6761899185  CLST         779          1.0000000000
      2336       779  TIP3  H1           23.3807378118        4.6795488435       28.8525633990  CLST         779          1.0000000000
      2337       779  TIP3  H2           23.8420657623        6.1003873042       29.1557966119  CLST         779          1.0000000000
      2338       780  TIP3  OH2           2.4074176926       13.8875620842       21.6683057089  CLST         780          1.0000000000
      2339       780  TIP3  H1            2.0810159874       14.6341798339       21.0935665292  CLST         780          1.0000000000
      2340       780  TIP3  H2            3.2266286307       13.7470339810       21.2505286778  CLST         780          1.0000000000
      2341       781  TIP3  OH2           8.9869704718       21.5626169195       20.6383600848  CLST         781          1.0000000000
      2342       781  TIP3  H1            9.7087346718       22.0844224478       21.0173252676  CLST         781          1.0000000000
      2343       781  TIP3  H2            9.2939135672       20.6528826366       20.8212412453  CLST         781          1.0000000000
      2344       782  TIP3  OH2           0.1660545095        2.5242383148        4.2549893758  CLST         782          1.0000000000
      2345       782  TIP3  H1           -0.5257819509        1.9747089885        4.7132486917  CLST         782          1.0000000000
      2346       782  TIP3  H2            0.9673737012        2.1572297590        4.6872241406  CLST         782          1.0000000000
      2347       783  TIP3  OH2          23.1781559212       17.6473412704       16.9577025420  CLST         783          1.0000000000
      2348       783  TIP3  H1           22.5024128725       18.1450446828       17.5180736133  CLST         783          1.0000000000
      2349       783  TIP3  H2           22.6629628527       17.4265891920       16.1704617195  CLST         783          1.0000000000
      2350       784  TIP3  OH2          14.6364800608        5.1521593351       26.2863828839  CLST         784          1.0000000000
      2351       784  TIP3  H1           15.0706308795        5.9460695732       25.9595434204  CLST         784          1.0000000000
      2352       784  TIP3  H2           13.7290708025        5.3619404542       26.1565159065  CLST         784          1.0000000000
      2353       785  TIP3  OH2          10.5559285348        8.3852700941        0.8324039598  CLST         785          1.0000000000
      2354       785  TIP3  H1           10.9428410978        8.6772445644        1.6296823411  CLST         785          1.0000000000
      2355       785  TIP3  H2           11.4165723069        8.3304006951        0.3027553770  CLST         785          1.0000000000
      2356       786  TIP3  OH2          12.6960981682        3.5395373765       12.5295049877  CLST         786          1.0000000000
      2357       786  TIP3  H1           13.1145422823        4.2936677895       12.9206537202  CLST         786          1.0000000000
      2358       786  TIP3  H2           11.8412390430        3.4654641813       12.9419601700  CLST         786          1.0000000000
      2359       787  TIP3  OH2          22.1863057901       30.2573997872       11.4380414524  CLST         787          1.0000000000
      2360       787  TIP3  H1           21.5663494786       30.5114768666       10.7610742629  CLST         787          1.0000000000
      2361       787  TIP3  H2           21.7036370747       29.5852329797       11.8912864304  CLST         787          1.0000000000
      2362       788  TIP3  OH2           2.4465949198       17.0337970054       10.8894590964  CLST         788          1.0000000000
      2363       788  TIP3  H1            2.2441025807       16.8384112327       11.8191991002  CLST         788          1.0000000000
      2364       788  TIP3  H2            3.1776748487       16.4159643941       10.7867605661  CLST         788          1.0000000000
      2365       789  TIP3  OH2          23.3470490752        0.9783302067       27.0273870133  CLST         789          1.0000000000
      2366       789  TIP3  H1           23.0991533583        0.1736726154       27.4262088338  CLST         789          1.0000000000
      2367       789  TIP3  H2           24.3014030256        0.7777603969       26.9268357485  CLST         789          1.0000000000
      2368       790  TIP3  OH2          19.0204512355       20.9462570107        5.6361728674  CLST         790          1.0000000000
      2369       790  TIP3  H1           19.0037526700       20.8738110957        6.5838225959  CLST         790          1.0000000000
      2370       790  TIP3  H2           18.8716199893       21.9041159912        5.5246196096  CLST         790          1.0000000000
      2371       791  TIP3  OH2          25.2763276025       24.5306211382       19.6067779534  CLST         791          1.0000000000
      2372       791  TIP3  H1           26.1854433588       24.2823494056       19.7375310592  CLST         791          1.0000000000
      2373       791  TIP3  H2           25.4681288411       25.3991949095       19.1732822760  CLST         791          1.0000000000
      2374       792  TIP3  OH2           7.1196339618       26.2323850963        9.8973880464  CLST         792          1.0000000000
      2375       792  TIP3  H1            7.5593834791       25.4240614730        9.7244126928  CLST         792          1.0000000000
      2376       792  TIP3  H2            7.8871766443       26.8137020007        9.8724038468  CLST         792          1.0000000000
      2377       793  TIP3  OH2          27.2256895014       12.7743014361       26.5923451273  CLST         793          1.0000000000
      2378       793  TIP3  H1           26.8136514749       12.6260358053       27.4181527498  CLST         793          1.0000000000
      2379       793  TIP3  H2           26.7799324083       12.0090295573       26.0982906560  CLST         793          1.0000000000
      2380       794  TIP3  OH2          29.7061156891        2.8840782861       23.6177580064  CLST         794          1.0000000000
      2381       794  TIP3  H1           29.4511112535        2.1739450176       23.0076508439  CLST         794          1.0000000000
      2382       794  TIP3  H2           29.3093786712        3.6547452930       23.0995468210  CLST         794          1.0000000000
      2383       795  TIP3  OH2          28.2829158879       20.8111748198        1.2380043039  CLST         795          1.0000000000
      2384       795  TIP3  H1           27.7406785305       20.0689850292        0.8373392749  CLST         795          1.0000000000
      2385       795  TIP3  H2           28.6218460339       20.4212332930        2.0749280595  CLST         795          1.0000000000
      2386       796  TIP3  OH2           2.8344766165        4.6364907710        4.8909360570  CLST         796          1.0000000000
      2387       796  TIP3  H1            2.9991061075        4.5278552760        3.8923195684  CLST         796          1.0000000000
      2388       796  TIP3  H2            3.6190349816        5.1489300552        5.1319115326  CLST         796          1.0000000000
      2389       797  TIP3  OH2          18.6075476497        5.5331292396       27.0589612271  CLST         797          1.0000000000
      2390       797  TIP3  H1           18.1791896273        6.4011991143       26.7556580461  CLST         797          1.0000000000
      2391       797  TIP3  H2           19.0966504455        5.2574844775       26.2668126312  CLST         797          1.0000000000
      2392       798  TIP3  OH2          19.0479064484        9.8087016816       10.5717828382  CLST         798          1.0000000000
      2393       798  TIP3  H1           18.9172498290       10.1735953600        9.7043276557  CLST         798          1.0000000000
      2394       798  TIP3  H2           18.6346454347       10.6260128442       11.0449612409  CLST         798          1.0000000000
      2395       799  TIP3  OH2           3.7452564972       28.4580202447       17.5628592914  CLST         799          1.0000000000
      2396       799  TIP3  H1            4.4186143100       29.1556880058       17.7426423028  CLST         799          1.0000000000
      2397       799  TIP3  H2            4.0334190400       28.1825505834       16.7196653391  CLST         799          1.0000000000
      2398       800  TIP3  OH2          20.1041484953        7.3042548371       10.2507259945  CLST         800          1.0000000000
      2399       800  TIP3  H1           19.3918103472        7.9647097267       10.4560716769  CLST         800          1.0000000000
      2400       800  TIP3  H2           20.8826594301        7.8754792883       10.3995602074  CLST         800          1.0000000000
      2401       801  TIP3  OH2           8.0528689153       19.1165348763       19.5544430349  CLST         801          1.0000000000
      2402       801  TIP3  H1            7.8333702093       18.1844808070       19.5931504598  CLST         801          1.0000000000
      2403       801  TIP3  H2            8.7051403780       19.1130369602       18.8201159214  CLST         801          1.0000000000
      2404       802  TIP3  OH2           5.5477125122       30.1139288248       11.7612246999  CLST         802          1.0000000000
      2405       802  TIP3  H1            4.8758817476       30.1243870238       11.0368051014  CLST         802          1.0000000000
      2406       802  TIP3  H2            6.3817851749       29.9531822909       11.3184761061  CLST         802          1.0000000000
      2407       803  TIP3  OH2           6.5871875712       20.6044368676        0.1572742689  CLST         803          1.0000000000
      2408       803  TIP3  H1            6.2527606605       19.7659183209       -0.0691827962  CLST         803          1.0000000000
      2409       803  TIP3  H2            6.0077940223       20.8800425643        0.8836749787  CLST         803          1.0000000000
      2410       804  TIP3  OH2           5.4003312119        6.2535969059        1.8418114167  CLST         804          1.0000000000
      2411       804  TIP3  H1            4.9137426788        6.1055883704        0.9828464889  CLST         804          1.0000000000
      2412       804  TIP3  H2            6.0719422802        5.5296407216        1.8479274276  CLST         804          1.0000000000
      2413       805  TIP3  OH2           7.4044145621       25.8925979119       14.3687339770  CLST         805          1.0000000000
      2414       805  TIP3  H1            8.1009856991       26.0030473827       13.7250478384  CLST         805          1.0000000000
      2415       805  TIP3  H2            7.9342190874       25.6133681093       15.1274371790  CLST         805          1.0000000000
      2416       806  TIP3  OH2           8.3352717465       10.0032981542       13.7974961627  CLST         806          1.0000000000
      2417       806  TIP3  H1            8.0061743015        9.0381543110       13.9117592594  CLST         806          1.0000000000
      2418       806  TIP3  H2            7.8370559628       10.2804133961       13.0092566432  CLST         806          1.0000000000
      2419       807  TIP3  OH2          26.5434184496        8.0494916118        1.4457728625  CLST         807          1.0000000000
      2420       807  TIP3  H1           26.6617887648        9.0173386703        1.5227633274  CLST         807          1.0000000000
      2421       807  TIP3  H2           26.5620099610        7.7784909776        2.3617194520  CLST         807          1.0000000000
      2422       808  TIP3  OH2          26.4801017825       13.8661817399        1.1318425828  CLST         808          1.0000000000
      2423       808  TIP3  H1           27.1037211332       13.9680606737        1.8964236845  CLST         808          1.0000000000
      2424       808  TIP3  H2           27.1712079244       13.6596226184        0.5182920410  CLST         808          1.0000000000
      2425       809  TIP3  OH2           2.0236067712       12.6923628341        9.4859905063  CLST         809          1.0000000000
      2426       809  TIP3  H1            2.2455407924       11.9171097304        8.9116943577  CLST         809          1.0000000000
      2427       809  TIP3  H2            1.3898363269       13.1717320786        8.9633673389  CLST         809          1.0000000000
      2428       810  TIP3  OH2          28.4252015155        8.6109742233        8.6803683477  CLST         810          1.0000000000
      2429       810  TIP3  H1           29.3598929506        8.8188238989        8.5069501297  CLST         810          1.0000000000
      2430       810  TIP3  H2           28.3722964907        8.1337121745        9.5164666527  CLST         810          1.0000000000
      2431       811  TIP3  OH2          26.4665920683       17.8140250268       21.1543441228  CLST         811          1.0000000000
      2432       811  TIP3  H1           25.9697612225       17.2572210320       20.4531104068  CLST         811          1.0000000000
      2433       811  TIP3  H2           26.1141631817       18.7076712381       21.0268073867  CLST         811          1.0000000000
      2434       812  TIP3  OH2          10.8504845116        4.4380746591       16.6696709365  CLST         812          1.0000000000
      2435       812  TIP3  H1           11.2202238275        3.5830964644       17.0074606354  CLST         812          1.0000000000
      2436       812  TIP3  H2           11.6335132143        4.9237247562       16.3471712326  CLST         812          1.0000000000
      2437       813  TIP3  OH2          27.9912603495        0.7493175070       16.2177658436  CLST         813          1.0000000000
      2438       813  TIP3  H1           28.2830332259        1.5878982739       15.7521588321  CLST         813          1.0000000000
      2439       813  TIP3  H2           27.0569588933        0.9056197365       16.2179053513  CLST         813          1.0000000000
      2440       814  TIP3  OH2          22.8101130681        8.0286201104       21.6901273338  CLST         814          1.0000000000
      2441       814  TIP3  H1           23.5141774064        8.7063090476       21.8479118011  CLST         814          1.0000000000
      2442       814  TIP3  H2           23.3137750558        7.2064306776       21.8161208514  CLST         814          1.0000000000
      2443       815  TIP3  OH2          25.2552175521        1.3205657477       21.8359166839  CLST         815          1.0000000000
      2444       815  TIP3  H1           25.6856541255        2.0850399805       22.0659393933  CLST         815          1.0000000000
      2445       815  TIP3  H2           24.4405511118        1.6347292093       21.4122992440  CLST         815          1.0000000000
      2446       816  TIP3  OH2          22.0109540313       16.6618194846        1.7342051640  CLST         816          1.0000000000
      2447       816  TIP3  H1           21.6520673020       15.7376704178        1.5954949478  CLST         816          1.0000000000
      2448       816  TIP3  H2           21.1728065076       17.1620970019        1.5660765044  CLST         816          1.0000000000
      2449       817  TIP3  OH2           3.5188098959       14.4481364216       10.9819267262  CLST         817          1.0000000000
      2450       817  TIP3  H1            2.9797876608       13.7049637331       10.5303841108  CLST         817          1.0000000000
      2451       817  TIP3  H2            3.2515212743       14.3772402288       11.9212744192  CLST         817          1.0000000000
      2452       818  TIP3  OH2          11.5735729975       26.9275738916       24.5368405095  CLST         818          1.0000000000
      2453       818  TIP3  H1           11.6557510235       27.7733505322       25.0250668779  CLST         818          1.0000000000
      2454       818  TIP3  H2           10.6390216947       26.8966813935       24.3381179383  CLST         818          1.0000000000
      2455       819  TIP3  OH2           0.2058179545       30.3588165874       19.7218464007  CLST         819          1.0000000000
      2456       819  TIP3  H1            0.3298523187       29.7098805743       18.9361871847  CLST         819          1.0000000000
      2457       819  TIP3  H2            1.0993409431       30.8136017333       19.6160098502  CLST         819          1.0000000000
      2458       820  TIP3  OH2          19.0514064481       22.4101817609       14.7490073644  CLST         820          1.0000000000
      2459       820  TIP3  H1           18.4138394980       21.9772861458       15.3301577498  CLST         820          1.0000000000
      2460       820  TIP3  H2           19.2066218426       21.8691329367       13.9355681096  CLST         820          1.0000000000
      2461       821  TIP3  OH2          12.0273581555       29.2040327792       14.8099937794  CLST         821          1.0000000000
      2462       821  TIP3  H1           12.7558016463       29.8111571575       14.6275906656  CLST         821          1.0000000000
      2463       821  TIP3  H2           12.1853104446       28.4658356012       14.1759057249  CLST         821          1.0000000000
      2464       822  TIP3  OH2          23.1650547068       14.4658992104        9.3168072065  CLST         822          1.0000000000
      2465       822  TIP3  H1           23.2232886725       13.9228582068        8.4882796779  CLST         822          1.0000000000
      2466       822  TIP3  H2           23.2279464190       13.7295907946        9.9486131349  CLST         822          1.0000000000
      2467       823  TIP3  OH2          21.1734506193       28.7199762154        7.7171674646  CLST         823          1.0000000000
      2468       823  TIP3  H1           20.6898986385       27.9029508870        8.0242913340  CLST         823          1.0000000000
      2469       823  TIP3  H2           22.0525348141       28.3943593222        7.7126550653  CLST         823          1.0000000000
      2470       824  TIP3  OH2          10.8112148921        0.6741755093        7.0425056415  CLST         824          1.0000000000
      2471       824  TIP3  H1           11.2122003712        0.3555701979        6.2199313461  CLST         824          1.0000000000
      2472       824  TIP3  H2           10.4107005318        1.5408686015        6.7299004885  CLST         824          1.0000000000
      2473       825  TIP3  OH2          25.7188882643       18.6836399611       16.3243302776  CLST         825          1.0000000000
      2474       825  TIP3  H1           24.8907295472       18.1009080284       16.3523665831  CLST         825          1.0000000000
      2475       825  TIP3  H2           25.4669199254       19.3638191543       16.9669797820  CLST         825          1.0000000000
      2476       826  TIP3  OH2           4.4154977086       16.1563733818        2.2577626485  CLST         826          1.0000000000
      2477       826  TIP3  H1            4.2604814555       15.2105125551        2.1619820086  CLST         826          1.0000000000
      2478       826  TIP3  H2            5.2781658836       16.2439393880        2.6325273207  CLST         826          1.0000000000
      2479       827  TIP3  OH2          20.2460628693        8.3559093335       23.7364161769  CLST         827          1.0000000000
      2480       827  TIP3  H1           20.8051314250        8.5738222699       24.4716925262  CLST         827          1.0000000000
      2481       827  TIP3  H2           20.4393800331        7.4113666714       23.6157191997  CLST         827          1.0000000000
      2482       828  TIP3  OH2          20.3847459679       22.6380149166       11.5720619853  CLST         828          1.0000000000
      2483       828  TIP3  H1           21.2699583582       22.3686656270       11.5605908684  CLST         828          1.0000000000
      2484       828  TIP3  H2           20.3604959082       23.4761840959       11.1882248250  CLST         828          1.0000000000
      2485       829  TIP3  OH2           3.1047676908       13.2428057268        6.4059171294  CLST         829          1.0000000000
      2486       829  TIP3  H1            3.6399240072       13.5841873021        7.1615339196  CLST         829          1.0000000000
      2487       829  TIP3  H2            2.8226098810       14.0429321122        5.8904757004  CLST         829          1.0000000000
      2488       830  TIP3  OH2          13.8977902760        2.8329460202        9.0410571245  CLST         830          1.0000000000
      2489       830  TIP3  H1           14.2710160274        3.4671869432        9.6653257348  CLST         830          1.0000000000
      2490       830  TIP3  H2           14.5462018356        2.9836654879        8.3271502924  CLST         830          1.0000000000
      2491       831  TIP3  OH2           3.0926065588        2.2970566538        8.1435125307  CLST         831          1.0000000000
      2492       831  TIP3  H1            3.3676826780        3.1679308208        8.3727128203  CLST         831          1.0000000000
      2493       831  TIP3  H2            2.1179151720        2.4330776040        7.9933619931  CLST         831          1.0000000000
      2494       832  TIP3  OH2          17.4159751254       27.5527542181        1.2095978368  CLST         832          1.0000000000
      2495       832  TIP3  H1           17.3163748884       28.3862841433        0.7170204356  CLST         832          1.0000000000
      2496       832  TIP3  H2           17.0138113236       27.7011030950        2.0525298551  CLST         832          1.0000000000
      2497       833  TIP3  OH2           1.4745633240       18.6293336765        5.1971988330  CLST         833          1.0000000000
      2498       833  TIP3  H1            1.6079102292       19.3604438642        5.8134974538  CLST         833          1.0000000000
      2499       833  TIP3  H2            2.3644103879       18.4590095652        4.8344811739  CLST         833          1.0000000000
      2500       834  TIP3  OH2           3.5051878482       26.9833546462        4.2320790487  CLST         834          1.0000000000
      2501       834  TIP3  H1            2.7583159641       27.4364002926        3.8406283621  CLST         834          1.0000000000
      2502       834  TIP3  H2            3.9609337887       27.6695516160        4.7827893900  CLST         834          1.0000000000
      2503       835  TIP3  OH2           4.3209185989        2.4666804671       30.4995969608  CLST         835          1.0000000000
      2504       835  TIP3  H1            4.6431891103        2.9197751384       29.7287073924  CLST         835          1.0000000000
      2505       835  TIP3  H2            4.0368750652        1.5674873116       30.1842246310  CLST         835          1.0000000000
      2506       836  TIP3  OH2           7.7064765073       24.5037299954       20.7552622688  CLST         836          1.0000000000
      2507       836  TIP3  H1            7.2847454201       23.6715489908       21.1918968123  CLST         836          1.0000000000
      2508       836  TIP3  H2            8.5754913138       24.1416568873       20.6379947980  CLST         836          1.0000000000
      2509       837  TIP3  OH2           3.2870649327        6.0848305976       29.7714867464  CLST         837          1.0000000000
      2510       837  TIP3  H1            2.6360498237        5.6915822572       29.1351659241  CLST         837          1.0000000000
      2511       837  TIP3  H2            2.8133322142        6.8432159984       30.0380127762  CLST         837          1.0000000000
      2512       838  TIP3  OH2          28.7265694507       16.6382421626       19.1347060674  CLST         838          1.0000000000
      2513       838  TIP3  H1           28.7813806181       15.7687044317       19.5811368184  CLST         838          1.0000000000
      2514       838  TIP3  H2           27.8281514375       16.6632663798       18.8638516292  CLST         838          1.0000000000
      2515       839  TIP3  OH2           1.3625239307       23.0411014674       28.8865443732  CLST         839          1.0000000000
      2516       839  TIP3  H1            0.9379219530       22.6866689606       29.6877740604  CLST         839          1.0000000000
      2517       839  TIP3  H2            0.5630052191       23.4150601364       28.4323279285  CLST         839          1.0000000000
      2518       840  TIP3  OH2          22.8005139361       11.6720808875       10.7818882865  CLST         840          1.0000000000
      2519       840  TIP3  H1           22.4109040775       11.1235267985       11.5248301446  CLST         840          1.0000000000
      2520       840  TIP3  H2           23.5341928668       11.0606249995       10.5718778589  CLST         840          1.0000000000
      2521       841  TIP3  OH2          21.7900086869       22.6224764236       26.1004409183  CLST         841          1.0000000000
      2522       841  TIP3  H1           22.1465958574       22.6607794672       27.0145738831  CLST         841          1.0000000000
      2523       841  TIP3  H2           22.6571341217       22.7122229751       25.6105208552  CLST         841          1.0000000000
      2524       842  TIP3  OH2          11.4116589336       15.9686763727        0.1329370589  CLST         842          1.0000000000
      2525       842  TIP3  H1           10.9594740549       15.7756791596        1.0066897649  CLST         842          1.0000000000
      2526       842  TIP3  H2           10.6946527977       15.9028491012       -0.4867559504  CLST         842          1.0000000000
      2527       843  TIP3  OH2           9.4164578050       13.1291927969        3.8263788538  CLST         843          1.0000000000
      2528       843  TIP3  H1            8.8689425206       12.7771829179        4.5795651737  CLST         843          1.0000000000
      2529       843  TIP3  H2            8.7671371712       13.5081299764        3.2281187204  CLST         843          1.0000000000
      2530       844  TIP3  OH2           1.4494133936       17.7144509179       28.4939515825  CLST         844          1.0000000000
      2531       844  TIP3  H1            1.9685789760       17.4982204250       29.2895146388  CLST         844          1.0000000000
      2532       844  TIP3  H2            0.5855615904       17.4212979884       28.8717592093  CLST         844          1.0000000000
      2533       845  TIP3  OH2          15.5965225095        4.4266593380       10.5533906813  CLST         845          1.0000000000
      2534       845  TIP3  H1           15.7257347623        3.6275000498       11.0905141950  CLST         845          1.0000000000
      2535       845  TIP3  H2           16.3989602702        4.9651305089       10.7183454761  CLST         845          1.0000000000
      2536       846  TIP3  OH2          19.1914779452       22.5276498892        2.4833451951  CLST         846          1.0000000000
      2537       846  TIP3  H1           18.4442444292       21.9333864351        2.7198089807  CLST         846          1.0000000000
      2538       846  TIP3  H2           18.6799073368       23.3516881001        2.3374653510  CLST         846          1.0000000000
      2539       847  TIP3  OH2           4.8994543693        9.7195523471        5.2765124723  CLST         847          1.0000000000
      2540       847  TIP3  H1            4.8643311092       10.7126554633        4.9513394958  CLST         847          1.0000000000
      2541       847  TIP3  H2            5.6122925698        9.9130918562        5.9011452338  CLST         847          1.0000000000
      2542       848  TIP3  OH2          20.9382324805        5.6413947451       20.5410551358  CLST         848          1.0000000000
      2543       848  TIP3  H1           20.0998583862        5.2357453475       20.0947202084  CLST         848          1.0000000000
      2544       848  TIP3  H2           20.5774648096        6.4939505046       20.8607818240  CLST         848          1.0000000000
      2545       849  TIP3  OH2          28.6964142958        1.8285156921       30.4890724691  CLST         849          1.0000000000
      2546       849  TIP3  H1           29.5907031194        2.2976677864       30.6226810732  CLST         849          1.0000000000
      2547       849  TIP3  H2           28.4244118584        1.8882015750       29.5579422015  CLST         849          1.0000000000
      2548       850  TIP3  OH2           5.3613583058       23.8640011625        5.8322041858  CLST         850          1.0000000000
      2549       850  TIP3  H1            4.4130677734       24.1055629456        6.0787797214  CLST         850          1.0000000000
      2550       850  TIP3  H2            5.8260448933       24.6388384773        6.0232200212  CLST         850          1.0000000000
      2551       851  TIP3  OH2           8.3942743393        6.3234502439        5.4485048511  CLST         851          1.0000000000
      2552       851  TIP3  H1            8.3680759604        6.3836435405        6.4103771336  CLST         851          1.0000000000
      2553       851  TIP3  H2            8.4773437451        7.2120542510        5.1514229076  CLST         851          1.0000000000
      2554       852  TIP3  OH2           9.5320179250        3.8192751238        1.3867832026  CLST         852          1.0000000000
      2555       852  TIP3  H1            9.4091165030        3.6102665773        2.3585103783  CLST         852          1.0000000000
      2556       852  TIP3  H2            8.6461268967        4.0960596296        1.1670130615  CLST         852          1.0000000000
      2557       853  TIP3  OH2           8.6312294667       25.2478924710       27.0435357329  CLST         853          1.0000000000
      2558       853  TIP3  H1            8.2621889202       25.5650466357       26.2476955958  CLST         853          1.0000000000
      2559       853  TIP3  H2            8.1707642636       25.7245106924       27.7603293040  CLST         853          1.0000000000
      2560       854  TIP3  OH2          19.5413725020       21.1510673586       24.3630473861  CLST         854          1.0000000000
      2561       854  TIP3  H1           20.3517653315       21.5756723162       23.9301493416  CLST         854          1.0000000000
      2562       854  TIP3  H2           19.6947527781       21.4498272311       25.2714890212  CLST         854          1.0000000000
      2563       855  TIP3  OH2           2.5938613615       27.0677416876       23.6630721517  CLST         855          1.0000000000
      2564       855  TIP3  H1            1.9802295164       27.5066040200       24.2860656263  CLST         855          1.0000000000
      2565       855  TIP3  H2            2.6883151358       27.8025608330       23.0210543559  CLST         855          1.0000000000
      2566       856  TIP3  OH2           3.2968392144       17.4594073753        0.1786385664  CLST         856          1.0000000000
      2567       856  TIP3  H1            4.0854232015       17.9804636455        0.2745461224  CLST         856          1.0000000000
      2568       856  TIP3  H2            3.5866218733       16.7633736612        0.8290802130  CLST         856          1.0000000000
      2569       857  TIP3  OH2          27.3216278987       24.6193509404       11.1590595338  CLST         857          1.0000000000
      2570       857  TIP3  H1           27.0107041568       24.3713524044       12.0425357192  CLST         857          1.0000000000
      2571       857  TIP3  H2           27.2501320909       25.5639723857       11.2602340264  CLST         857          1.0000000000
      2572       858  TIP3  OH2           6.1933106728       15.9385593845       12.9368577313  CLST         858          1.0000000000
      2573       858  TIP3  H1            6.6274378358       15.2914969421       13.4649415203  CLST         858          1.0000000000
      2574       858  TIP3  H2            5.2723417338       15.8904375820       13.2162766814  CLST         858          1.0000000000
      2575       859  TIP3  OH2          21.7494973978       28.8088022230       17.3573374824  CLST         859          1.0000000000
      2576       859  TIP3  H1           22.4703254236       28.1242328455       17.3880753090  CLST         859          1.0000000000
      2577       859  TIP3  H2           21.9463321484       29.2735245909       18.1831394308  CLST         859          1.0000000000
      2578       860  TIP3  OH2          20.3673882523       24.0411087015       29.1659238405  CLST         860          1.0000000000
      2579       860  TIP3  H1           20.1051194022       24.6980116927       28.4811754302  CLST         860          1.0000000000
      2580       860  TIP3  H2           21.1426275419       23.5885005483       28.8056339919  CLST         860          1.0000000000
      2581       861  TIP3  OH2           5.1536630813       20.1168691529       25.8865715312  CLST         861          1.0000000000
      2582       861  TIP3  H1            4.7030301673       19.7859071750       26.6418057711  CLST         861          1.0000000000
      2583       861  TIP3  H2            5.3178540442       19.3612419585       25.3255904173  CLST         861          1.0000000000
      2584       862  TIP3  OH2          19.0638345851       27.4496718449       17.5294290322  CLST         862          1.0000000000
      2585       862  TIP3  H1           19.7194079576       28.1969738955       17.4217495667  CLST         862          1.0000000000
      2586       862  TIP3  H2           19.6195329882       27.1671012988       18.2627235702  CLST         862          1.0000000000
      2587       863  TIP3  OH2          11.0431308530       19.6347749257       21.6931076710  CLST         863          1.0000000000
      2588       863  TIP3  H1           11.7364207618       19.9528781930       22.2355122483  CLST         863          1.0000000000
      2589       863  TIP3  H2           11.4887086942       19.1886188035       20.9245182013  CLST         863          1.0000000000
      2590       864  TIP3  OH2          16.5846548195        3.4349282764        3.1968235166  CLST         864          1.0000000000
      2591       864  TIP3  H1           16.0839209417        3.5122784085        4.0195517964  CLST         864          1.0000000000
      2592       864  TIP3  H2           16.7156955869        4.3314622604        2.9106985684  CLST         864          1.0000000000
      2593       865  TIP3  OH2          12.8214403844        8.6191582882       18.9097233466  CLST         865          1.0000000000
      2594       865  TIP3  H1           13.5780727419        8.1541477181       18.6157502904  CLST         865          1.0000000000
      2595       865  TIP3  H2           12.8419720000        8.3248519650       19.7925832752  CLST         865          1.0000000000
      2596       866  TIP3  OH2           6.5573696904       20.0048813674       21.8918186704  CLST         866          1.0000000000
      2597       866  TIP3  H1            6.2922750479       19.2600133670       22.5449303337  CLST         866          1.0000000000
      2598       866  TIP3  H2            7.1650598612       19.7057039367       21.2293928722  CLST         866          1.0000000000
      2599       867  TIP3  OH2          21.8951443314       12.2871466919       27.2072412746  CLST         867          1.0000000000
      2600       867  TIP3  H1           20.9797186728       12.3249316417       27.4970840444  CLST         867          1.0000000000
      2601       867  TIP3  H2           22.2668084047       13.0630891420       27.6906340267  CLST         867          1.0000000000
      2602       868  TIP3  OH2          20.6107968528       13.1791592852       10.0059568913  CLST         868          1.0000000000
      2603       868  TIP3  H1           21.2741874349       12.4436502140        9.9370249719  CLST         868          1.0000000000
      2604       868  TIP3  H2           21.0539890244       13.9130803556        9.6158750595  CLST         868          1.0000000000
      2605       869  TIP3  OH2           3.2369717700       28.6361979937        1.2286856366  CLST         869          1.0000000000
      2606       869  TIP3  H1            2.5512677759       27.9873564607        1.0530821966  CLST         869          1.0000000000
      2607       869  TIP3  H2            2.7718765387       29.1165980183        1.9668420645  CLST         869          1.0000000000
      2608       870  TIP3  OH2          23.3410958777       26.5000525585       17.3165603917  CLST         870          1.0000000000
      2609       870  TIP3  H1           24.2064133711       26.5312255241       17.7299159245  CLST         870          1.0000000000
      2610       870  TIP3  H2           23.6315218965       26.5650239591       16.4125387465  CLST         870          1.0000000000
      2611       871  TIP3  OH2          23.0235390703        2.4740507851       20.3820601755  CLST         871          1.0000000000
      2612       871  TIP3  H1           22.8300006053        2.7581708276       19.5116967744  CLST         871          1.0000000000
      2613       871  TIP3  H2           22.1311324099        2.2475681277       20.7346600865  CLST         871          1.0000000000
      2614       872  TIP3  OH2          17.1292472976       11.4712978561       20.3526865028  CLST         872          1.0000000000
      2615       872  TIP3  H1           17.3346964254       11.8422215908       19.5430066084  CLST         872          1.0000000000
      2616       872  TIP3  H2           17.0519225918       10.5708618288       20.2246664557  CLST         872          1.0000000000
      2617       873  TIP3  OH2          12.0209503664       26.0338449092       20.2857486741  CLST         873          1.0000000000
      2618       873  TIP3  H1           11.6676055962       26.9055549683       20.1863981022  CLST         873          1.0000000000
      2619       873  TIP3  H2           12.0453788289       25.7876716707       19.3423319354  CLST         873          1.0000000000
      2620       874  TIP3  OH2          12.8904895110        8.3579009225       21.7520579123  CLST         874          1.0000000000
      2621       874  TIP3  H1           13.2271611406        7.7973564564       22.4958171554  CLST         874          1.0000000000
      2622       874  TIP3  H2           11.8931751874        8.4867453006       21.9092228510  CLST         874          1.0000000000
      2623       875  TIP3  OH2           1.1989640745       28.8537471022       17.7891663116  CLST         875          1.0000000000
      2624       875  TIP3  H1            2.1383990125       28.6801890065       17.4928738290  CLST         875          1.0000000000
      2625       875  TIP3  H2            0.7651721266       28.8276993536       16.9392280048  CLST         875          1.0000000000
      2626       876  TIP3  OH2           9.1949783196        7.1632554435       18.4503313585  CLST         876          1.0000000000
      2627       876  TIP3  H1            8.9958522708        7.3577959656       17.5235964145  CLST         876          1.0000000000
      2628       876  TIP3  H2            8.2509373956        7.0641947194       18.8159187168  CLST         876          1.0000000000
      2629       877  TIP3  OH2          23.2843855125       16.9239034756       25.2258653405  CLST         877          1.0000000000
      2630       877  TIP3  H1           22.6194893069       17.3678879455       25.7918647513  CLST         877          1.0000000000
      2631       877  TIP3  H2           24.1158984955       17.5036837747       25.2219224630  CLST         877          1.0000000000
      2632       878  TIP3  OH2           5.6876550611       19.1231363147        6.9066682251  CLST         878          1.0000000000
      2633       878  TIP3  H1            5.0013991111       18.6643846229        6.4519035700  CLST         878          1.0000000000
      2634       878  TIP3  H2            5.1500160305       19.9045652211        7.1508421147  CLST         878          1.0000000000
      2635       879  TIP3  OH2           2.9118407662        5.1190837804       23.1332003010  CLST         879          1.0000000000
      2636       879  TIP3  H1            3.4819528085        5.5905436624       22.5875345123  CLST         879          1.0000000000
      2637       879  TIP3  H2            3.4531759386        5.0984814420       23.9715142042  CLST         879          1.0000000000
      2638       880  TIP3  OH2          24.7512817568       28.4505624875       14.9712078661  CLST         880          1.0000000000
      2639       880  TIP3  H1           24.2274474683       27.7104383656       14.5516327742  CLST         880          1.0000000000
      2640       880  TIP3  H2           24.3415575691       29.2532647868       14.5316331535  CLST         880          1.0000000000
      2641       881  TIP3  OH2          29.7576484478       13.5836869969        8.4491569564  CLST         881          1.0000000000
      2642       881  TIP3  H1           30.2793434304       13.4940230537        7.5649063139  CLST         881          1.0000000000
      2643       881  TIP3  H2           28.8097999741       13.6849379413        8.2064838748  CLST         881          1.0000000000
      2644       882  TIP3  OH2          12.3646073956       28.4972858792       28.9788937803  CLST         882          1.0000000000
      2645       882  TIP3  H1           11.7742463588       27.8777929169       28.5522490331  CLST         882          1.0000000000
      2646       882  TIP3  H2           12.2109082581       28.2643750306       29.9163416865  CLST         882          1.0000000000
      2647       883  TIP3  OH2           1.6354214979       20.8351205163       25.8614802734  CLST         883          1.0000000000
      2648       883  TIP3  H1            2.1032066644       20.6830673642       26.6786389120  CLST         883          1.0000000000
      2649       883  TIP3  H2            2.3736517793       20.8166734531       25.2189050948  CLST         883          1.0000000000
      2650       884  TIP3  OH2          16.0841052977       24.3244802486       17.0793138724  CLST         884          1.0000000000
      2651       884  TIP3  H1           16.8292084665       23.7308323644       16.9224102758  CLST         884          1.0000000000
      2652       884  TIP3  H2           15.4694498736       23.7389521494       17.5557148927  CLST         884          1.0000000000
      2653       885  TIP3  OH2           0.8186501092       14.8321055969       29.8773574110  CLST         885          1.0000000000
      2654       885  TIP3  H1           -0.1640759969       14.8208780781       29.8955815420  CLST         885          1.0000000000
      2655       885  TIP3  H2            1.0576954032       13.9167013483       30.1857237044  CLST         885          1.0000000000
      2656       886  TIP3  OH2          12.0836196923       10.0799771932        4.0015349286  CLST         886          1.0000000000
      2657       886  TIP3  H1           12.7880600219        9.4460188152        3.8416289825  CLST         886          1.0000000000
      2658       886  TIP3  H2           11.7285607489        9.9124357930        4.8953479618  CLST         886          1.0000000000
      2659       887  TIP3  OH2          22.9338150654       22.3851826772       28.5354014422  CLST         887          1.0000000000
      2660       887  TIP3  H1           23.0777060502       21.4525195311       28.3318773874  CLST         887          1.0000000000
      2661       887  TIP3  H2           23.7569382140       22.6337398830       28.9467216885  CLST         887          1.0000000000
      2662       888  TIP3  OH2          17.1155219462       27.4423278039       10.6103570249  CLST         888          1.0000000000
      2663       888  TIP3  H1           16.6246872272       27.4310589432       11.4791123584  CLST         888          1.0000000000
      2664       888  TIP3  H2           17.8248025603       28.0960975871       10.8182006806  CLST         888          1.0000000000
      2665       889  TIP3  OH2           4.8722464598       17.4366038726        8.8299746549  CLST         889          1.0000000000
      2666       889  TIP3  H1            5.5612819436       17.8123783830        8.2295300706  CLST         889          1.0000000000
      2667       889  TIP3  H2            4.9198583405       18.1443154936        9.4534324953  CLST         889          1.0000000000
      2668       890  TIP3  OH2          16.6431042492        5.8648094661       20.7380139353  CLST         890          1.0000000000
      2669       890  TIP3  H1           16.4519160841        6.7004660941       20.3368259512  CLST         890          1.0000000000
      2670       890  TIP3  H2           16.2169364654        6.0310942735       21.5629146187  CLST         890          1.0000000000
      2671       891  TIP3  OH2          17.5860514236       24.5420127488       10.8468698545  CLST         891          1.0000000000
      2672       891  TIP3  H1           17.0185341122       25.3236834592       10.7749796854  CLST         891          1.0000000000
      2673       891  TIP3  H2           17.6229908244       24.4077793546        9.8704269916  CLST         891          1.0000000000
      2674       892  TIP3  OH2           3.2196587436       13.8692894852       13.5822338653  CLST         892          1.0000000000
      2675       892  TIP3  H1            2.5710884802       14.2028391897       14.1774158810  CLST         892          1.0000000000
      2676       892  TIP3  H2            3.5069115974       13.1259160300       14.1136116089  CLST         892          1.0000000000
      2677       893  TIP3  OH2          29.9751338838        7.3615112364        3.1089284356  CLST         893          1.0000000000
      2678       893  TIP3  H1           29.4938324541        6.5539591825        2.9239036600  CLST         893          1.0000000000
      2679       893  TIP3  H2           29.5093987402        7.9698810882        2.5656994868  CLST         893          1.0000000000
      2680       894  TIP3  OH2           9.4263659096       11.2967166203        0.3076604097  CLST         894          1.0000000000
      2681       894  TIP3  H1            9.8437232744       12.0440391236        0.7761048879  CLST         894          1.0000000000
      2682       894  TIP3  H2            8.5990523223       11.5354998288       -0.1572191371  CLST         894          1.0000000000
      2683       895  TIP3  OH2          20.2651578956       10.5908639583       19.5510858983  CLST         895          1.0000000000
      2684       895  TIP3  H1           19.9757201405       11.2388986688       20.2380398729  CLST         895          1.0000000000
      2685       895  TIP3  H2           21.2001898727       10.8805826375       19.5739274893  CLST         895          1.0000000000
      2686       896  TIP3  OH2           8.0594154595       23.4587067754       29.9281702944  CLST         896          1.0000000000
      2687       896  TIP3  H1            7.6424846389       23.7793517357       29.1175928808  CLST         896          1.0000000000
      2688       896  TIP3  H2            8.8054953929       22.9175237719       29.5784743405  CLST         896          1.0000000000
      2689       897  TIP3  OH2           9.6042642609       28.0948267559       21.2314124763  CLST         897          1.0000000000
      2690       897  TIP3  H1            9.3640618482       27.7658018802       22.1316678450  CLST         897          1.0000000000
      2691       897  TIP3  H2            9.5807142369       29.0348289911       21.3937923382  CLST         897          1.0000000000
      2692       898  TIP3  OH2          13.9655664009        5.9668329175       18.5147174881  CLST         898          1.0000000000
      2693       898  TIP3  H1           14.7179970261        5.5720668210       19.0290433770  CLST         898          1.0000000000
      2694       898  TIP3  H2           13.2048046079        5.5720344644       18.9153983717  CLST         898          1.0000000000
      2695       899  TIP3  OH2          14.2814377317       23.8150345816        1.7164720178  CLST         899          1.0000000000
      2696       899  TIP3  H1           14.2556392349       22.8724929463        1.7669980055  CLST         899          1.0000000000
      2697       899  TIP3  H2           13.7525240743       24.0350901747        2.5114877598  CLST         899          1.0000000000
      2698       900  TIP3  OH2          20.5505343457       20.1367624890        9.9199465354  CLST         900          1.0000000000
      2699       900  TIP3  H1           20.5627340988       21.0562210734       10.2690913199  CLST         900          1.0000000000
      2700       900  TIP3  H2           21.3448436169       20.1275129272        9.3310374324  CLST         900          1.0000000000
      2701       901  TIP3  OH2          10.1821471432        8.5954647447       21.7681099551  CLST         901          1.0000000000
      2702       901  TIP3  H1           10.0437134613        9.5513900416       21.7003952478  CLST         901          1.0000000000
      2703       901  TIP3  H2            9.6567794310        8.2498588636       21.0457413113  CLST         901          1.0000000000
      2704       902  TIP3  OH2           3.6568222610        0.4589249976       10.0430614987  CLST         902          1.0000000000
      2705       902  TIP3  H1            4.0990135909       -0.0970224460        9.4377745915  CLST         902          1.0000000000
      2706       902  TIP3  H2            3.5628235849        1.1951686964        9.4097690477  CLST         902          1.0000000000
      2707       903  TIP3  OH2          29.4367511976        0.7196973833       21.9634877280  CLST         903          1.0000000000
      2708       903  TIP3  H1           29.6456853775        0.5335559959       21.0047124980  CLST         903          1.0000000000
      2709       903  TIP3  H2           30.0219581129        0.0766784564       22.3131767173  CLST         903          1.0000000000
