* CHARMM CGENFF SD/ABNR before MLpot (MM only)
*
        20  EXT
         1         1  DCM   C             3.4064496021       -1.1237974160       -9.0569128338  CLST           1          1.0000000000
         2         1  DCM   H1            3.7527326288       -1.4520540162       -8.0527469820  CLST           1          1.0000000000
         3         1  DCM   H2            3.0167077777       -1.9775791930       -9.6513244534  CLST           1          1.0000000000
         4         1  DCM   CL1           2.1040919594        0.0829250249       -8.8499145456  CLST           1          1.0000000000
         5         1  DCM   CL2           4.7795739066       -0.3826225559       -9.9301857329  CLST           1          1.0000000000
         6         2  DCM   C            -9.1106794840       -9.1766760143       -9.0324548228  CLST           2          1.0000000000
         7         2  DCM   H1           -8.7908451658       -8.4654473693       -8.2425737703  CLST           2          1.0000000000
         8         2  DCM   H2           -9.6626806935      -10.0356512846       -8.5949501699  CLST           2          1.0000000000
         9         2  DCM   CL1         -10.1800509398       -8.3247287028      -10.1845324563  CLST           2          1.0000000000
        10         2  DCM   CL2          -7.6635079343       -9.7903703363       -9.8842229738  CLST           2          1.0000000000
        11         3  DCM   C             1.1602812325        3.9033740898       -9.2777953658  CLST           3          1.0000000000
        12         3  DCM   H1            2.0385145204        4.3752165197       -9.7668950685  CLST           3          1.0000000000
        13         3  DCM   H2            1.1024185370        2.8218388461       -9.5218518795  CLST           3          1.0000000000
        14         3  DCM   CL1           1.3085129280        4.0949009964       -7.5047476667  CLST           3          1.0000000000
        15         3  DCM   CL2          -0.3271247353        4.7115376258       -9.8564184181  CLST           3          1.0000000000
        16         4  DCM   C            -7.8284479858        2.6577629250       -8.6078044555  CLST           4          1.0000000000
        17         4  DCM   H1           -8.5568701362        2.6401991361       -7.7703821932  CLST           4          1.0000000000
        18         4  DCM   H2           -6.8980229187        2.1145494520       -8.3408527383  CLST           4          1.0000000000
        19         4  DCM   CL1          -8.5681864186        1.8781580739      -10.0366492177  CLST           4          1.0000000000
        20         4  DCM   CL2          -7.4198666804        4.3564641987       -8.9867842557  CLST           4          1.0000000000
