* MLpot PhysNet steepest descent (USER / MMML)
*
        20  EXT
         1         1  DCM   C             3.3552173556       -0.9605913142       -9.0094648228  CLST           1          1.0000000000
         2         1  DCM   H1            3.6822730634       -1.2741020881       -8.0691479398  CLST           1          1.0000000000
         3         1  DCM   H2            2.8477743303       -1.6586904560       -9.5995411812  CLST           1          1.0000000000
         4         1  DCM   CL1           2.1907303380        0.3589992773       -8.7132475914  CLST           1          1.0000000000
         5         1  DCM   CL2           4.7715194097       -0.4184276769       -9.9166410131  CLST           1          1.0000000000
         6         2  DCM   C            -9.1121794324       -9.1751862500       -9.0256319152  CLST           2          1.0000000000
         7         2  DCM   H1           -8.7904725731       -8.4759679126       -8.3132966376  CLST           2          1.0000000000
         8         2  DCM   H2           -9.6378132465      -10.0029414443       -8.6583252872  CLST           2          1.0000000000
         9         2  DCM   CL1         -10.2085152183       -8.3183799772      -10.1227898648  CLST           2          1.0000000000
        10         2  DCM   CL2          -7.6568450592       -9.8032837848       -9.8176569106  CLST           2          1.0000000000
        11         3  DCM   C             1.2072015191        3.7351892535       -9.3519748857  CLST           3          1.0000000000
        12         3  DCM   H1            2.0330031380        4.2800878902       -9.7057836475  CLST           3          1.0000000000
        13         3  DCM   H2            1.0517814442        2.7725920031       -9.7769800477  CLST           3          1.0000000000
        14         3  DCM   CL1           1.4217837799        3.5368969489       -7.6142852185  CLST           3          1.0000000000
        15         3  DCM   CL2          -0.2345581853        4.6844459047       -9.7103376554  CLST           3          1.0000000000
        16         4  DCM   C            -7.8241347559        2.6514594584       -8.6032832160  CLST           4          1.0000000000
        17         4  DCM   H1           -8.5398940639        2.6582668503       -7.8368319904  CLST           4          1.0000000000
        18         4  DCM   H2           -6.9270228700        2.1508455688       -8.3956251468  CLST           4          1.0000000000
        19         4  DCM   CL1          -8.5632382496        1.8244577126       -9.9849044619  CLST           4          1.0000000000
        20         4  DCM   CL2          -7.4036114572        4.3423298355       -8.9242493151  CLST           4          1.0000000000
