* COORD
*
        54  EXT
         1         1  TRIA  CAY           7.3194385163        8.2496790735        7.7925383820  PEPT           1          1.0000000000
         2         1  TRIA  HY1           6.5868849813        7.1688303194        7.8286443963  PEPT           1          1.0000000000
         3         1  TRIA  HY2           8.2639007546        8.0135605080        8.0600458091  PEPT           1          1.0000000000
         4         1  TRIA  HY3           7.1392910579        7.5519378294        6.8896972626  PEPT           1          1.0000000000
         5         1  TRIA  CY            7.9072656542        7.6766395108        6.7042853145  PEPT           1          1.0000000000
         6         1  TRIA  OY            6.7829227968        8.1544477537        6.9504337728  PEPT           1          1.0000000000
         7         1  TRIA  N1            6.9680479376        6.9195506038        7.3274082571  PEPT           1          1.0000000000
         8         1  TRIA  HN1           7.7078803028        7.1657990163        7.8832536862  PEPT           1          1.0000000000
         9         1  TRIA  CA1           8.0818849249        6.6692121190        7.9680004939  PEPT           1          1.0000000000
        10         1  TRIA  HA1           7.7592612718        6.7132419418        7.1070641350  PEPT           1          1.0000000000
        11         1  TRIA  CB1           7.3984906380        7.7180012136        6.9074655183  PEPT           1          1.0000000000
        12         1  TRIA  HB11          6.5532417700        7.3171806874        7.2974098961  PEPT           1          1.0000000000
        13         1  TRIA  HB21          8.2620462791        7.3203928483        7.2576610170  PEPT           1          1.0000000000
        14         1  TRIA  HB31          8.2916122197        8.3958500658        7.3009647216  PEPT           1          1.0000000000
        15         1  TRIA  C1            8.4677015768        7.5512575110        7.4761047625  PEPT           1          1.0000000000
        16         1  TRIA  O1            8.5451383918        6.4002386472        7.2788262458  PEPT           1          1.0000000000
        17         1  TRIA  N2            7.5139560366        7.2504018834        8.4184114229  PEPT           1          1.0000000000
        18         1  TRIA  HN2           6.9340760290        6.5614739482        7.7870805055  PEPT           1          1.0000000000
        19         1  TRIA  CA2           7.3874559311        8.3069901890        8.2392623799  PEPT           1          1.0000000000
        20         1  TRIA  HA2           7.7966325730        7.4362417644        7.1157122481  PEPT           1          1.0000000000
        21         1  TRIA  CB2           7.6230117466        8.0687491643        7.0094649275  PEPT           1          1.0000000000
        22         1  TRIA  HB12          6.8855076358        7.1206272661        7.4396034007  PEPT           1          1.0000000000
        23         1  TRIA  HB22          7.4699088604        7.4893973080        7.8678701927  PEPT           1          1.0000000000
        24         1  TRIA  HB32          7.4709503378        7.0491867364        6.5334604957  PEPT           1          1.0000000000
        25         1  TRIA  C2            7.8296083912        7.3481468791        8.2878881223  PEPT           1          1.0000000000
        26         1  TRIA  O2            8.1492256375        7.4384712389        7.1301320584  PEPT           1          1.0000000000
        27         1  TRIA  N3            6.9340747553        6.5614747293        7.7870718920  PEPT           1          1.0000000000
        28         1  TRIA  HN3           7.4499694952        6.9366040375        8.3359693348  PEPT           1          1.0000000000
        29         1  TRIA  CA3           7.7296811341        7.8891572364        6.9643290161  PEPT           1          1.0000000000
        30         1  TRIA  HA3           7.2694094703        8.6748724301        7.9530100990  PEPT           1          1.0000000000
        31         1  TRIA  CB3           7.5083939924        7.8088857926        7.9468971107  PEPT           1          1.0000000000
        32         1  TRIA  HB13          6.4714002899        7.6192152672        7.1154198986  PEPT           1          1.0000000000
        33         1  TRIA  HB23          6.8327317632        8.1673618498        6.8322139941  PEPT           1          1.0000000000
        34         1  TRIA  HB33          8.4531527120        8.6078806039        8.1336093746  PEPT           1          1.0000000000
        35         1  TRIA  C3            6.9568592138        8.1550979438        7.0910767464  PEPT           1          1.0000000000
        36         1  TRIA  O3            6.3703641705        7.3182381332        7.8331132350  PEPT           1          1.0000000000
        37         1  TRIA  NT            7.8579046549        7.3510193768        8.3163073124  PEPT           1          1.0000000000
        38         1  TRIA  HNT           7.1562472388        7.8915901923        8.2212776915  PEPT           1          1.0000000000
        39         1  TRIA  CAT           7.9208973550        7.5434453176        7.3217053564  PEPT           1          1.0000000000
        40         1  TRIA  HT1           6.9727089325        7.9247287781        7.8379117938  PEPT           1          1.0000000000
        41         1  TRIA  HT2           8.1154042327        6.9910312655        6.6958736826  PEPT           1          1.0000000000
        42         1  TRIA  HT3           7.9054583368        6.5038910192        6.7555240377  PEPT           1          1.0000000000
        43         1  TIP3  OH2           3.2590000000       13.0290000000        6.0320000000  SOLV           1          1.0000000000
        44         1  TIP3  H1            2.8000000000       12.3500000000        6.5270000000  SOLV           1          1.0000000000
        45         1  TIP3  H2            2.8140000000       13.0510000000        5.1850000000  SOLV           1          1.0000000000
        46         2  TIP3  OH2          -4.8140000000       12.1310000000        7.5690000000  SOLV           2          1.0000000000
        47         2  TIP3  H1           -4.8380000000       12.8680000000        6.9600000000  SOLV           2          1.0000000000
        48         2  TIP3  H2           -4.1670000000       12.3840000000        8.2270000000  SOLV           2          1.0000000000
        49         3  TIP3  OH2          -2.6620000000       12.2360000000        3.4640000000  SOLV           3          1.0000000000
        50         3  TIP3  H1           -3.0720000000       12.8490000000        2.8550000000  SOLV           3          1.0000000000
        51         3  TIP3  H2           -2.2790000000       12.7910000000        4.1430000000  SOLV           3          1.0000000000
        52         4  TIP3  OH2           9.3790000000       12.3780000000       -2.0160000000  SOLV           4          1.0000000000
        53         4  TIP3  H1            9.3790000000       13.3160000000       -1.8330000000  SOLV           4          1.0000000000
        54         4  TIP3  H2           10.3010000000       12.1240000000       -1.9730000000  SOLV           4          1.0000000000
