* pre_mlpot:monomer_repack_skipped_clean
*
        2709  EXT
         1         1  TIP3  OH2           5.5930993058        0.8254364611       -3.6936461092  CLST           1          1.0000000000
         2         1  TIP3  H1            5.1413953958        0.5547376726       -2.8580242712  CLST           1          1.0000000000
         3         1  TIP3  H2            4.8708939703        0.6475628859       -4.3218298840  CLST           1          1.0000000000
         4         2  TIP3  OH2          15.4502552707       -2.3169545855       -1.5597107444  CLST           2          1.0000000000
         5         2  TIP3  H1           14.7537418852       -2.0057274698       -2.1783396407  CLST           2          1.0000000000
         6         2  TIP3  H2           15.1190573733       -3.1420712897       -1.1699671477  CLST           2          1.0000000000
         7         3  TIP3  OH2          -8.7302686846       -6.6305306239       -7.5607096049  CLST           3          1.0000000000
         8         3  TIP3  H1           -9.4894773649       -6.0473670637       -7.7335293081  CLST           3          1.0000000000
         9         3  TIP3  H2           -8.5437462767       -6.8327731778       -8.5021586172  CLST           3          1.0000000000
        10         4  TIP3  OH2          -9.4302675699       -4.1191421181       12.8539402705  CLST           4          1.0000000000
        11         4  TIP3  H1          -10.2567741526       -4.3239641143       13.1677360135  CLST           4          1.0000000000
        12         4  TIP3  H2           -9.2200629900       -4.5664507560       11.9601557722  CLST           4          1.0000000000
        13         5  TIP3  OH2          -3.4095336933      -10.1928090408       14.3722321610  CLST           5          1.0000000000
        14         5  TIP3  H1           -3.6611424383      -10.9321930553       15.0038869182  CLST           5          1.0000000000
        15         5  TIP3  H2           -3.7599358493      -10.4893748723       13.5256366987  CLST           5          1.0000000000
        16         6  TIP3  OH2          -3.4948773048        9.5565189818       14.6840054929  CLST           6          1.0000000000
        17         6  TIP3  H1           -2.6519910287        9.9794655421       14.3002194848  CLST           6          1.0000000000
        18         6  TIP3  H2           -3.1023523260        9.3673819279       15.5391722854  CLST           6          1.0000000000
        19         7  TIP3  OH2          -5.1071590170       -1.3988778034        8.8220390023  CLST           7          1.0000000000
        20         7  TIP3  H1           -4.7666583639       -1.0310673673        8.0192775510  CLST           7          1.0000000000
        21         7  TIP3  H2           -5.8300438100       -1.9841302868        8.4541598239  CLST           7          1.0000000000
        22         8  TIP3  OH2          -7.1666970696       -4.5511589174       -0.9849858240  CLST           8          1.0000000000
        23         8  TIP3  H1           -7.3146235671       -4.5534509861       -0.0173697489  CLST           8          1.0000000000
        24         8  TIP3  H2           -6.4851969626       -5.2206086893       -1.1108699760  CLST           8          1.0000000000
        25         9  TIP3  OH2         -12.9410106411       -5.1783984699        0.1298342655  CLST           9          1.0000000000
        26         9  TIP3  H1          -13.7124160907       -4.9394661708       -0.4498576890  CLST           9          1.0000000000
        27         9  TIP3  H2          -12.7170028844       -4.2620625491        0.4525114366  CLST           9          1.0000000000
        28        10  TIP3  OH2          -4.3879592407        8.1152538192       -8.8547294055  CLST          10          1.0000000000
        29        10  TIP3  H1           -4.6040214768        9.0326360113       -8.8222388124  CLST          10          1.0000000000
        30        10  TIP3  H2           -3.4562725645        8.1554748446       -8.8072620727  CLST          10          1.0000000000
        31        11  TIP3  OH2           5.9770353260       12.7431955563       10.7003775283  CLST          11          1.0000000000
        32        11  TIP3  H1            5.2750701360       13.3801787776       10.9510553233  CLST          11          1.0000000000
        33        11  TIP3  H2            5.4307337013       11.9568467875       10.9379846460  CLST          11          1.0000000000
        34        12  TIP3  OH2         -11.7053385917      -13.1279110886       -3.0817543646  CLST          12          1.0000000000
        35        12  TIP3  H1          -12.5518622701      -12.8770245544       -2.6366742454  CLST          12          1.0000000000
        36        12  TIP3  H2          -12.0032619727      -13.5443455894       -3.9055278483  CLST          12          1.0000000000
        37        13  TIP3  OH2          -0.7296670635      -11.0951757848        3.1983694503  CLST          13          1.0000000000
        38        13  TIP3  H1            0.1796194453      -11.1572986368        2.8006157853  CLST          13          1.0000000000
        39        13  TIP3  H2           -0.5811289045      -11.0955132342        4.1657932775  CLST          13          1.0000000000
        40        14  TIP3  OH2          -1.6802195839        5.3016786421        7.9665723718  CLST          14          1.0000000000
        41        14  TIP3  H1           -1.8443930226        5.1610474146        8.8893350354  CLST          14          1.0000000000
        42        14  TIP3  H2           -0.6743954422        5.2862164207        7.8337462494  CLST          14          1.0000000000
        43        15  TIP3  OH2           1.0879108233       -1.1841005408       -4.6743516638  CLST          15          1.0000000000
        44        15  TIP3  H1            0.3973251219       -0.8645518644       -4.1257231605  CLST          15          1.0000000000
        45        15  TIP3  H2            1.1114717035       -2.1112918381       -4.3635294156  CLST          15          1.0000000000
        46        16  TIP3  OH2          -4.7962593605       -6.1611373823       13.7996055749  CLST          16          1.0000000000
        47        16  TIP3  H1           -4.0645516108       -6.8388197585       13.9232125571  CLST          16          1.0000000000
        48        16  TIP3  H2           -5.4204650850       -6.3795125913       14.5389319990  CLST          16          1.0000000000
        49        17  TIP3  OH2           8.4742930879       -0.4707965476        2.4555011800  CLST          17          1.0000000000
        50        17  TIP3  H1            7.8910985158       -1.1575435402        2.8970015577  CLST          17          1.0000000000
        51        17  TIP3  H2            9.0344520788       -1.0604589561        1.8941953113  CLST          17          1.0000000000
        52        18  TIP3  OH2           2.6471104018       -8.2398384345       -8.6444643363  CLST          18          1.0000000000
        53        18  TIP3  H1            3.1566761438       -7.4297540454       -8.6061108131  CLST          18          1.0000000000
        54        18  TIP3  H2            2.7166870231       -8.4585837633       -7.6697931947  CLST          18          1.0000000000
        55        19  TIP3  OH2           6.9789772098        7.6952476757       14.5883497983  CLST          19          1.0000000000
        56        19  TIP3  H1            7.5887273091        6.9936056065       14.9640749920  CLST          19          1.0000000000
        57        19  TIP3  H2            7.0529548271        8.1857486029       15.3924514456  CLST          19          1.0000000000
        58        20  TIP3  OH2           4.0067677449        9.4868320183        8.9887200722  CLST          20          1.0000000000
        59        20  TIP3  H1            3.2984714908       10.0157221370        8.6236097562  CLST          20          1.0000000000
        60        20  TIP3  H2            3.7382453193        8.6701894493        8.5800748132  CLST          20          1.0000000000
        61        21  TIP3  OH2           0.6119564508       -8.3992197619        1.1674379572  CLST          21          1.0000000000
        62        21  TIP3  H1            0.4564839595       -8.1835452918        2.0427703669  CLST          21          1.0000000000
        63        21  TIP3  H2           -0.3182223981       -8.7687848562        1.0324446515  CLST          21          1.0000000000
        64        22  TIP3  OH2          11.5121429962       -9.5343747153       10.3575202020  CLST          22          1.0000000000
        65        22  TIP3  H1           11.3626271219       -9.0129624149        9.5191156060  CLST          22          1.0000000000
        66        22  TIP3  H2           10.7070058589      -10.0733003830       10.4054789181  CLST          22          1.0000000000
        67        23  TIP3  OH2          12.0736140360      -14.9231453622      -10.9353792471  CLST          23          1.0000000000
        68        23  TIP3  H1           11.7027165870      -15.5945736927      -10.2996991730  CLST          23          1.0000000000
        69        23  TIP3  H2           12.8944104328      -14.5852697760      -10.5044776652  CLST          23          1.0000000000
        70        24  TIP3  OH2          12.9584290803       -7.2662608163       15.2648417096  CLST          24          1.0000000000
        71        24  TIP3  H1           12.7618400893       -7.6308372478       14.4472670446  CLST          24          1.0000000000
        72        24  TIP3  H2           12.0282661254       -7.0502037943       15.5744534050  CLST          24          1.0000000000
        73        25  TIP3  OH2           0.0821316970       -5.6609564164        5.6035614742  CLST          25          1.0000000000
        74        25  TIP3  H1           -0.3106853684       -5.2577165481        4.8112962423  CLST          25          1.0000000000
        75        25  TIP3  H2           -0.0065303214       -6.5774885174        5.3480634121  CLST          25          1.0000000000
        76        26  TIP3  OH2          -5.6816348399       -5.4859100287       -7.9097373158  CLST          26          1.0000000000
        77        26  TIP3  H1           -6.4221771436       -6.0276478554       -8.2778375354  CLST          26          1.0000000000
        78        26  TIP3  H2           -4.9175691879       -5.6969559095       -8.4591566348  CLST          26          1.0000000000
        79        27  TIP3  OH2           4.1295734970       12.2107179730       -0.9054472421  CLST          27          1.0000000000
        80        27  TIP3  H1            4.8997608624       12.0169383115       -0.4042287266  CLST          27          1.0000000000
        81        27  TIP3  H2            4.0250792009       13.1716375820       -0.7247259263  CLST          27          1.0000000000
        82        28  TIP3  OH2          -5.0998565850       -6.3169729624        6.6883360429  CLST          28          1.0000000000
        83        28  TIP3  H1           -4.1110063276       -6.2169528857        6.6930280746  CLST          28          1.0000000000
        84        28  TIP3  H2           -5.2433994000       -6.7331791739        5.8652457277  CLST          28          1.0000000000
        85        29  TIP3  OH2           4.2069012661      -10.1533614366       13.1325224490  CLST          29          1.0000000000
        86        29  TIP3  H1            5.1191714225       -9.7099112838       13.2241899572  CLST          29          1.0000000000
        87        29  TIP3  H2            3.5608607538       -9.4386448117       13.1679530318  CLST          29          1.0000000000
        88        30  TIP3  OH2          -0.9881819085       -3.5416755705       11.9099611932  CLST          30          1.0000000000
        89        30  TIP3  H1           -1.1043330873       -4.2740183688       12.4942010306  CLST          30          1.0000000000
        90        30  TIP3  H2           -0.5592477781       -2.8857199362       12.4980582798  CLST          30          1.0000000000
        91        31  TIP3  OH2          -5.5699901042      -10.1735570110       -9.8056201270  CLST          31          1.0000000000
        92        31  TIP3  H1           -6.5278248273       -9.9936437464       -9.6221407318  CLST          31          1.0000000000
        93        31  TIP3  H2           -5.2298754688       -9.3136140329       -9.5492906978  CLST          31          1.0000000000
        94        32  TIP3  OH2           4.4125871366        6.3852562811       15.0143645669  CLST          32          1.0000000000
        95        32  TIP3  H1            5.0964502587        7.0165234584       14.6215447583  CLST          32          1.0000000000
        96        32  TIP3  H2            3.6012255833        6.5690057599       14.5584288901  CLST          32          1.0000000000
        97        33  TIP3  OH2           1.6980846330       -5.1740285347       11.9816881072  CLST          33          1.0000000000
        98        33  TIP3  H1            1.9703554680       -4.4553928957       12.5678357854  CLST          33          1.0000000000
        99        33  TIP3  H2            1.7982559473       -4.7531513752       11.1468280344  CLST          33          1.0000000000
       100        34  TIP3  OH2         -12.3917405236       -6.7562373069        5.5606734159  CLST          34          1.0000000000
       101        34  TIP3  H1          -12.5213214351       -6.3632021109        4.6616754395  CLST          34          1.0000000000
       102        34  TIP3  H2          -13.1816348898       -7.2504895980        5.6552895750  CLST          34          1.0000000000
       103        35  TIP3  OH2         -12.7399552017        9.3503834494       14.5175774662  CLST          35          1.0000000000
       104        35  TIP3  H1          -12.8440342050        9.9969351882       13.7456692816  CLST          35          1.0000000000
       105        35  TIP3  H2          -13.4205108323        8.7382103268       14.3969031662  CLST          35          1.0000000000
       106        36  TIP3  OH2           6.8235741065       -8.7981558418      -11.7833560270  CLST          36          1.0000000000
       107        36  TIP3  H1            7.4614084101       -8.9445045857      -11.0924586355  CLST          36          1.0000000000
       108        36  TIP3  H2            7.2384656743       -9.4464631953      -12.4726217380  CLST          36          1.0000000000
       109        37  TIP3  OH2          10.4743129821      -11.8173352799        6.4489666131  CLST          37          1.0000000000
       110        37  TIP3  H1            9.7507479331      -11.7053940161        7.1031824039  CLST          37          1.0000000000
       111        37  TIP3  H2           11.1434506227      -12.1636765337        7.0706860051  CLST          37          1.0000000000
       112        38  TIP3  OH2           5.8182575864      -12.0318575194       -0.5538723128  CLST          38          1.0000000000
       113        38  TIP3  H1            6.5949726446      -12.6878368763       -0.4587660417  CLST          38          1.0000000000
       114        38  TIP3  H2            5.2551555939      -12.4674489202       -1.2304429654  CLST          38          1.0000000000
       115        39  TIP3  OH2          13.4296773291        6.3714111167       -6.7087410501  CLST          39          1.0000000000
       116        39  TIP3  H1           13.6927619879        5.4708518608       -6.8948457017  CLST          39          1.0000000000
       117        39  TIP3  H2           12.6660842717        6.3352679358       -6.1948293856  CLST          39          1.0000000000
       118        40  TIP3  OH2          -4.6932951520       14.3523826493       -5.9842151561  CLST          40          1.0000000000
       119        40  TIP3  H1           -5.4515655047       14.8336699586       -5.6255142350  CLST          40          1.0000000000
       120        40  TIP3  H2           -4.4931993964       13.6130096125       -5.4225093379  CLST          40          1.0000000000
       121        41  TIP3  OH2          11.1690200056        5.5138900965      -11.2174074440  CLST          41          1.0000000000
       122        41  TIP3  H1           10.9162612434        4.8918135939      -11.9223199664  CLST          41          1.0000000000
       123        41  TIP3  H2           10.5874724577        6.2707583544      -11.4242714086  CLST          41          1.0000000000
       124        42  TIP3  OH2          -1.3179838435       -6.9700843401       -2.2274604814  CLST          42          1.0000000000
       125        42  TIP3  H1           -1.9032744497       -6.4574559854       -2.8006740072  CLST          42          1.0000000000
       126        42  TIP3  H2           -1.3465989382       -7.7968847659       -2.6436224806  CLST          42          1.0000000000
       127        43  TIP3  OH2           9.7637368504      -11.1724844095       -1.8899168042  CLST          43          1.0000000000
       128        43  TIP3  H1            9.2509721738      -11.1140961923       -1.1152245024  CLST          43          1.0000000000
       129        43  TIP3  H2            9.2860969196      -11.8725814741       -2.2787485075  CLST          43          1.0000000000
       130        44  TIP3  OH2           0.5409176611       -3.1362229998        6.5824725198  CLST          44          1.0000000000
       131        44  TIP3  H1           -0.3514075501       -3.1059050690        7.0482967678  CLST          44          1.0000000000
       132        44  TIP3  H2            0.5394212178       -4.1045397142        6.4006925748  CLST          44          1.0000000000
       133        45  TIP3  OH2           4.8118308188       -6.2564815110        9.2523223432  CLST          45          1.0000000000
       134        45  TIP3  H1            4.7065404282       -5.2767450768        9.1547097941  CLST          45          1.0000000000
       135        45  TIP3  H2            4.9560202753       -6.2674539208       10.2272141527  CLST          45          1.0000000000
       136        46  TIP3  OH2           7.6582789721        4.8519580992       -8.3100511452  CLST          46          1.0000000000
       137        46  TIP3  H1            7.4834468470        5.3987184865       -7.5566155945  CLST          46          1.0000000000
       138        46  TIP3  H2            6.8241692270        4.8290173796       -8.7348351334  CLST          46          1.0000000000
       139        47  TIP3  OH2         -10.8169285448      -11.1143311913        3.2781033299  CLST          47          1.0000000000
       140        47  TIP3  H1          -10.9732033575      -10.3884300463        3.9225821474  CLST          47          1.0000000000
       141        47  TIP3  H2          -10.6438405427      -11.9028079085        3.7746461587  CLST          47          1.0000000000
       142        48  TIP3  OH2         -14.2283309294        9.5125001498        8.7354517441  CLST          48          1.0000000000
       143        48  TIP3  H1          -14.4635651281        9.7223507892        7.8451297863  CLST          48          1.0000000000
       144        48  TIP3  H2          -13.8151783249       10.2602632811        9.1642640218  CLST          48          1.0000000000
       145        49  TIP3  OH2           8.6779614167       -4.3459905996        4.0047201412  CLST          49          1.0000000000
       146        49  TIP3  H1            7.7717848257       -4.4716766449        3.7884264717  CLST          49          1.0000000000
       147        49  TIP3  H2            9.2069390425       -4.3647780882        3.2036825251  CLST          49          1.0000000000
       148        50  TIP3  OH2          11.2642125447        5.7156229317       -5.1373043026  CLST          50          1.0000000000
       149        50  TIP3  H1           11.5110944220        4.8342947116       -4.8910810865  CLST          50          1.0000000000
       150        50  TIP3  H2           10.4869693252        5.8788289908       -4.6507326519  CLST          50          1.0000000000
       151        51  TIP3  OH2          12.9111967714       -1.2766914330      -10.6315051237  CLST          51          1.0000000000
       152        51  TIP3  H1           13.2245051250       -1.9751094023      -11.2438653772  CLST          51          1.0000000000
       153        51  TIP3  H2           12.3761373894       -0.6693952419      -11.1913690124  CLST          51          1.0000000000
       154        52  TIP3  OH2          -1.5154852123       -1.3906830623       10.3757837961  CLST          52          1.0000000000
       155        52  TIP3  H1           -2.2023534686       -1.0015349970       10.9054549910  CLST          52          1.0000000000
       156        52  TIP3  H2           -1.2349396447       -2.1685391447       10.8951765985  CLST          52          1.0000000000
       157        53  TIP3  OH2         -10.9289489659       14.3640947709       -6.9515783754  CLST          53          1.0000000000
       158        53  TIP3  H1          -11.2239942803       15.1692684598       -6.4931403578  CLST          53          1.0000000000
       159        53  TIP3  H2           -9.9824536972       14.5684122462       -7.0283879837  CLST          53          1.0000000000
       160        54  TIP3  OH2         -13.8712049868       -5.4996203830       -8.1201208542  CLST          54          1.0000000000
       161        54  TIP3  H1          -12.8749604702       -5.4951000195       -8.1257052789  CLST          54          1.0000000000
       162        54  TIP3  H2          -14.0658012241       -5.2124693438       -9.0095533055  CLST          54          1.0000000000
       163        55  TIP3  OH2           0.4652060044        9.5985215111      -10.6361061869  CLST          55          1.0000000000
       164        55  TIP3  H1            0.0023757674       10.1831914331      -11.2565194240  CLST          55          1.0000000000
       165        55  TIP3  H2            0.6860627534       10.2477178473       -9.9751699211  CLST          55          1.0000000000
       166        56  TIP3  OH2          -1.5120863385       -5.2001309819       14.1876639100  CLST          56          1.0000000000
       167        56  TIP3  H1           -2.1719718636       -4.6171412817       14.5628126838  CLST          56          1.0000000000
       168        56  TIP3  H2           -2.0157104825       -6.0465806440       14.2475340465  CLST          56          1.0000000000
       169        57  TIP3  OH2         -10.3981857095       11.4128553355       -1.4439828080  CLST          57          1.0000000000
       170        57  TIP3  H1          -10.4762189294       12.0588829877       -0.8108996944  CLST          57          1.0000000000
       171        57  TIP3  H2          -11.3294786388       11.2661183488       -1.6022349601  CLST          57          1.0000000000
       172        58  TIP3  OH2           9.9396206971        1.5089726015        0.1845708931  CLST          58          1.0000000000
       173        58  TIP3  H1            8.9831460873        1.2887736021        0.2835865577  CLST          58          1.0000000000
       174        58  TIP3  H2            9.8803484144        2.3976191447        0.4449923574  CLST          58          1.0000000000
       175        59  TIP3  OH2         -13.1656284054       13.2728046825        5.1885982758  CLST          59          1.0000000000
       176        59  TIP3  H1          -13.0318685079       13.9241281337        4.4537579989  CLST          59          1.0000000000
       177        59  TIP3  H2          -12.3713508311       12.7534297799        5.1238426438  CLST          59          1.0000000000
       178        60  TIP3  OH2          -3.9725240087        3.0487576389        7.0955605216  CLST          60          1.0000000000
       179        60  TIP3  H1           -3.3396490750        2.4808026120        7.4629586800  CLST          60          1.0000000000
       180        60  TIP3  H2           -3.5235208746        3.9153114918        7.2355487271  CLST          60          1.0000000000
       181        61  TIP3  OH2           0.3404175533       -1.9354182219        0.5142708550  CLST          61          1.0000000000
       182        61  TIP3  H1           -0.0157124377       -1.1396139079        0.9056054286  CLST          61          1.0000000000
       183        61  TIP3  H2           -0.3992351196       -2.5399507585        0.6410338402  CLST          61          1.0000000000
       184        62  TIP3  OH2          -3.8516745934        8.7777310023        4.5235757969  CLST          62          1.0000000000
       185        62  TIP3  H1           -3.3460162369        8.1927062139        5.0828419198  CLST          62          1.0000000000
       186        62  TIP3  H2           -3.1449102596        9.2718205133        4.0836622029  CLST          62          1.0000000000
       187        63  TIP3  OH2          -0.4502542770        7.6906239089       -3.1051691135  CLST          63          1.0000000000
       188        63  TIP3  H1           -0.7904748624        8.5084352484       -3.5853387971  CLST          63          1.0000000000
       189        63  TIP3  H2           -0.8758458953        7.8206641846       -2.2425331706  CLST          63          1.0000000000
       190        64  TIP3  OH2         -13.6247142485        3.3320573013       -3.4962398763  CLST          64          1.0000000000
       191        64  TIP3  H1          -12.8864081637        3.9794948565       -3.3462033142  CLST          64          1.0000000000
       192        64  TIP3  H2          -14.3968227349        3.9036734094       -3.7072643899  CLST          64          1.0000000000
       193        65  TIP3  OH2          -9.3465905345      -12.0676746292      -11.7500622568  CLST          65          1.0000000000
       194        65  TIP3  H1           -9.3990717769      -12.3429963971      -10.8269749317  CLST          65          1.0000000000
       195        65  TIP3  H2          -10.2846665543      -12.0674428437      -11.9198206377  CLST          65          1.0000000000
       196        66  TIP3  OH2          13.0068099259       -7.9630179795        3.7411483885  CLST          66          1.0000000000
       197        66  TIP3  H1           13.3392996280       -8.6303787184        3.0709060837  CLST          66          1.0000000000
       198        66  TIP3  H2           12.5061617979       -8.4999997348        4.3551869472  CLST          66          1.0000000000
       199        67  TIP3  OH2           7.4999947620       -0.7752202196       -6.2679547318  CLST          67          1.0000000000
       200        67  TIP3  H1            8.0913838513       -1.2819817334       -5.6112171769  CLST          67          1.0000000000
       201        67  TIP3  H2            8.1550653249       -0.1974115976       -6.7276727958  CLST          67          1.0000000000
       202        68  TIP3  OH2          -6.9688241238        1.0970719828        0.8119978265  CLST          68          1.0000000000
       203        68  TIP3  H1           -7.6710747936        0.5066754465        1.1029949301  CLST          68          1.0000000000
       204        68  TIP3  H2           -7.1110156428        1.8458249415        1.3922017978  CLST          68          1.0000000000
       205        69  TIP3  OH2         -11.6970082268       -0.5701960670        7.1553857737  CLST          69          1.0000000000
       206        69  TIP3  H1          -10.9583945478       -0.9997728461        7.4903825027  CLST          69          1.0000000000
       207        69  TIP3  H2          -11.6302517459        0.3401276148        7.4185818754  CLST          69          1.0000000000
       208        70  TIP3  OH2          -1.8387223537        7.4158523282       -8.2822693469  CLST          70          1.0000000000
       209        70  TIP3  H1           -0.8553911838        7.1910931734       -8.3240194518  CLST          70          1.0000000000
       210        70  TIP3  H2           -1.7757601679        8.3336338902       -7.8991502098  CLST          70          1.0000000000
       211        71  TIP3  OH2         -13.5441133450       -1.5647442961       -5.5629600782  CLST          71          1.0000000000
       212        71  TIP3  H1          -13.1605730247       -1.3859723033       -4.6875317510  CLST          71          1.0000000000
       213        71  TIP3  H2          -13.5029296277       -0.6922812395       -6.0007862193  CLST          71          1.0000000000
       214        72  TIP3  OH2          11.1103331378       -2.7081080386        5.0476520531  CLST          72          1.0000000000
       215        72  TIP3  H1           10.5797491781       -2.6988627780        4.2507614650  CLST          72          1.0000000000
       216        72  TIP3  H2           11.4750445689       -1.7691380687        4.9374474688  CLST          72          1.0000000000
       217        73  TIP3  OH2          -3.5322393089      -13.5929323199       -6.6104732916  CLST          73          1.0000000000
       218        73  TIP3  H1           -3.6968332048      -13.2649965549       -7.5202369334  CLST          73          1.0000000000
       219        73  TIP3  H2           -3.8549093702      -14.4810821141       -6.7464893917  CLST          73          1.0000000000
       220        74  TIP3  OH2          -4.8003758964       12.4395662365       -1.4041824659  CLST          74          1.0000000000
       221        74  TIP3  H1           -5.1847226787       11.6614680354       -1.8566865422  CLST          74          1.0000000000
       222        74  TIP3  H2           -5.2584800695       13.1026152956       -1.8614823322  CLST          74          1.0000000000
       223        75  TIP3  OH2          -9.6697968949        4.6773824713        5.2982203406  CLST          75          1.0000000000
       224        75  TIP3  H1           -8.8109482639        5.0799797674        5.3807490501  CLST          75          1.0000000000
       225        75  TIP3  H2          -10.0607456003        4.8938170318        6.1308144704  CLST          75          1.0000000000
       226        76  TIP3  OH2           8.3108821034       13.2854891310       -9.1370132520  CLST          76          1.0000000000
       227        76  TIP3  H1            8.5819280657       13.6184214648      -10.0646593852  CLST          76          1.0000000000
       228        76  TIP3  H2            9.1872419225       12.9389527167       -8.9667318521  CLST          76          1.0000000000
       229        77  TIP3  OH2           0.4600208399       -5.2927538454       -5.4527737745  CLST          77          1.0000000000
       230        77  TIP3  H1            0.7845493357       -4.8723732717       -6.2829778221  CLST          77          1.0000000000
       231        77  TIP3  H2           -0.3501768379       -5.7844856378       -5.6417534810  CLST          77          1.0000000000
       232        78  TIP3  OH2          -5.5803239952       -8.2656858725        1.4535889213  CLST          78          1.0000000000
       233        78  TIP3  H1           -5.1275159155       -7.7701361105        0.7231903089  CLST          78          1.0000000000
       234        78  TIP3  H2           -6.0516448975       -9.0143014888        0.9894107726  CLST          78          1.0000000000
       235        79  TIP3  OH2           6.8268900081      -14.2785498611       10.2665701493  CLST          79          1.0000000000
       236        79  TIP3  H1            6.4848407050      -14.6283115106       11.1651808096  CLST          79          1.0000000000
       237        79  TIP3  H2            6.1051587096      -13.7054154142        9.8871264796  CLST          79          1.0000000000
       238        80  TIP3  OH2           6.5435835382       -0.1836351060      -13.0844817469  CLST          80          1.0000000000
       239        80  TIP3  H1            6.0855258535        0.1844362154      -13.9022560507  CLST          80          1.0000000000
       240        80  TIP3  H2            7.4210318923        0.2516896729      -13.1057588734  CLST          80          1.0000000000
       241        81  TIP3  OH2          -7.3068085955        1.1735101545        6.0342726697  CLST          81          1.0000000000
       242        81  TIP3  H1           -8.2001788707        1.4233803767        5.9346950470  CLST          81          1.0000000000
       243        81  TIP3  H2           -6.9276290001        2.0380514023        6.0579746213  CLST          81          1.0000000000
       244        82  TIP3  OH2           2.0240004227       -1.8944383736       10.9007451452  CLST          82          1.0000000000
       245        82  TIP3  H1            2.3320921550       -1.0476788113       10.5572326398  CLST          82          1.0000000000
       246        82  TIP3  H2            2.8245798490       -2.3200798348       11.3107705599  CLST          82          1.0000000000
       247        83  TIP3  OH2          10.2676924422        8.3229034122       -4.9544008318  CLST          83          1.0000000000
       248        83  TIP3  H1           10.5665786179        7.7425929438       -5.6449016470  CLST          83          1.0000000000
       249        83  TIP3  H2           10.7639428787        7.9746466571       -4.2054109069  CLST          83          1.0000000000
       250        84  TIP3  OH2         -13.5834919753        8.0770620022       -1.1650152462  CLST          84          1.0000000000
       251        84  TIP3  H1          -14.1742296430        7.3864264077       -0.9524070174  CLST          84          1.0000000000
       252        84  TIP3  H2          -12.7179566238        7.7135228817       -0.9377350280  CLST          84          1.0000000000
       253        85  TIP3  OH2           2.5117098066       -1.5853452175        7.7368935403  CLST          85          1.0000000000
       254        85  TIP3  H1            2.0256600722       -1.9701446157        6.9906632045  CLST          85          1.0000000000
       255        85  TIP3  H2            3.2130077370       -2.2849313459        7.7016958226  CLST          85          1.0000000000
       256        86  TIP3  OH2           8.0130830915       -9.2019003961        9.8691854251  CLST          86          1.0000000000
       257        86  TIP3  H1            8.3224260449       -8.2981880707       10.2061682826  CLST          86          1.0000000000
       258        86  TIP3  H2            7.3582853025       -9.4644560490       10.5013476590  CLST          86          1.0000000000
       259        87  TIP3  OH2           0.4413233128       -1.2623609192       12.8295072997  CLST          87          1.0000000000
       260        87  TIP3  H1            0.8457833675       -1.4477892925       11.9487454067  CLST          87          1.0000000000
       261        87  TIP3  H2            0.4731009278       -0.2447951991       12.7900072461  CLST          87          1.0000000000
       262        88  TIP3  OH2          14.3438124307      -11.3667674912        8.2933777690  CLST          88          1.0000000000
       263        88  TIP3  H1           13.5501991969      -11.8472335473        8.2716314955  CLST          88          1.0000000000
       264        88  TIP3  H2           14.7395728938      -11.8434777059        9.0373055488  CLST          88          1.0000000000
       265        89  TIP3  OH2           6.7084647714       11.6610547999       -3.9726083560  CLST          89          1.0000000000
       266        89  TIP3  H1            5.9159604020       11.8900137599       -3.5033486191  CLST          89          1.0000000000
       267        89  TIP3  H2            6.9526580911       10.8022418990       -3.5889236592  CLST          89          1.0000000000
       268        90  TIP3  OH2          14.5541131370       -4.6705215852       -0.3545153680  CLST          90          1.0000000000
       269        90  TIP3  H1           14.0724450435       -5.2211601285       -0.9549934422  CLST          90          1.0000000000
       270        90  TIP3  H2           14.5037423868       -5.2221488023        0.4394700313  CLST          90          1.0000000000
       271        91  TIP3  OH2          11.4463798859       10.6731769875       -5.7233965880  CLST          91          1.0000000000
       272        91  TIP3  H1           11.2089992454        9.7289382946       -5.6098220737  CLST          91          1.0000000000
       273        91  TIP3  H2           10.7089143289       11.0993002650       -5.2633695197  CLST          91          1.0000000000
       274        92  TIP3  OH2          -6.2743174353        3.6545646097        8.6305372442  CLST          92          1.0000000000
       275        92  TIP3  H1           -5.9562547135        3.3632523958        7.7108337374  CLST          92          1.0000000000
       276        92  TIP3  H2           -6.3337914159        2.7767321592        9.0769841885  CLST          92          1.0000000000
       277        93  TIP3  OH2           5.1853040345       -6.4253325491       11.9862326223  CLST          93          1.0000000000
       278        93  TIP3  H1            4.9441973965       -5.7580098891       12.6187036619  CLST          93          1.0000000000
       279        93  TIP3  H2            5.9240442287       -6.7739618857       12.4911371932  CLST          93          1.0000000000
       280        94  TIP3  OH2          -6.1695655478       12.2268898235        4.3276612456  CLST          94          1.0000000000
       281        94  TIP3  H1           -6.2677807583       11.9556182536        3.3346968154  CLST          94          1.0000000000
       282        94  TIP3  H2           -6.0911532585       11.3206882849        4.7102105845  CLST          94          1.0000000000
       283        95  TIP3  OH2           6.5803407446       11.2080835922       -0.3703567414  CLST          95          1.0000000000
       284        95  TIP3  H1            6.8652060343       10.6575972742       -1.1571232739  CLST          95          1.0000000000
       285        95  TIP3  H2            6.3713510149       10.4510880597        0.2248847507  CLST          95          1.0000000000
       286        96  TIP3  OH2          14.7787851804       -0.6118814366       12.5632328288  CLST          96          1.0000000000
       287        96  TIP3  H1           15.1763718329       -1.4948996548       12.8580312385  CLST          96          1.0000000000
       288        96  TIP3  H2           14.2229723790       -0.9043944976       11.8127565556  CLST          96          1.0000000000
       289        97  TIP3  OH2          -8.3597708470        9.5364503826       12.9494982322  CLST          97          1.0000000000
       290        97  TIP3  H1           -8.2190225788        9.1288524836       12.0359740918  CLST          97          1.0000000000
       291        97  TIP3  H2           -7.3997037620        9.5491685270       13.2597592263  CLST          97          1.0000000000
       292        98  TIP3  OH2           1.6083402067        4.1981795376       13.9698139120  CLST          98          1.0000000000
       293        98  TIP3  H1            1.9880276306        4.7178912031       13.2368317848  CLST          98          1.0000000000
       294        98  TIP3  H2            2.3283791744        3.6029851440       14.0711343738  CLST          98          1.0000000000
       295        99  TIP3  OH2         -12.6342064675       12.3661152710       -5.5597589364  CLST          99          1.0000000000
       296        99  TIP3  H1          -13.3145166062       12.4183191786       -6.2857059785  CLST          99          1.0000000000
       297        99  TIP3  H2          -12.0053022409       12.9408707225       -6.0006354944  CLST          99          1.0000000000
       298       100  TIP3  OH2           9.2732260703       -3.8664879367       -6.8974816394  CLST         100          1.0000000000
       299       100  TIP3  H1            8.6095866471       -3.6968881421       -6.1723202677  CLST         100          1.0000000000
       300       100  TIP3  H2            9.2642859784       -4.8266733478       -6.9775246405  CLST         100          1.0000000000
       301       101  TIP3  OH2          11.4176295282        2.0589335942      -10.2587058479  CLST         101          1.0000000000
       302       101  TIP3  H1           11.2091977030        2.8893899955       -9.7644967217  CLST         101          1.0000000000
       303       101  TIP3  H2           11.7820502678        1.5647744583       -9.5297558483  CLST         101          1.0000000000
       304       102  TIP3  OH2          -7.1205566827        2.3953562504      -12.9128982891  CLST         102          1.0000000000
       305       102  TIP3  H1           -7.8236452588        1.8815499096      -13.3155476725  CLST         102          1.0000000000
       306       102  TIP3  H2           -7.4783046791        3.2638695073      -12.7572043064  CLST         102          1.0000000000
       307       103  TIP3  OH2          -4.5207161057      -13.9501811076      -11.4270803904  CLST         103          1.0000000000
       308       103  TIP3  H1           -4.5916906045      -14.9001006539      -11.2440636229  CLST         103          1.0000000000
       309       103  TIP3  H2           -5.1919705417      -13.9445649743      -12.1351971655  CLST         103          1.0000000000
       310       104  TIP3  OH2         -11.0222552188      -11.5725661112        7.8178736180  CLST         104          1.0000000000
       311       104  TIP3  H1          -10.4023447815      -11.1879379038        7.1600476592  CLST         104          1.0000000000
       312       104  TIP3  H2          -11.0786340948      -10.9482551315        8.5568877248  CLST         104          1.0000000000
       313       105  TIP3  OH2           4.6404527718       -0.5747886610       14.4239082537  CLST         105          1.0000000000
       314       105  TIP3  H1            3.7861062512       -1.0597917956       14.5838731818  CLST         105          1.0000000000
       315       105  TIP3  H2            4.7373689429       -0.8723899191       13.5022321877  CLST         105          1.0000000000
       316       106  TIP3  OH2          14.0585950492       -1.4227946924        4.9413954978  CLST         106          1.0000000000
       317       106  TIP3  H1           14.5446603356       -0.7257961902        5.3503026655  CLST         106          1.0000000000
       318       106  TIP3  H2           13.2823825238       -0.8828929340        4.6871014478  CLST         106          1.0000000000
       319       107  TIP3  OH2           1.6219888981      -12.4914418141       -7.3839777191  CLST         107          1.0000000000
       320       107  TIP3  H1            0.6549643844      -12.4756974663       -7.3087638953  CLST         107          1.0000000000
       321       107  TIP3  H2            1.8414709082      -12.6474250301       -6.4108544626  CLST         107          1.0000000000
       322       108  TIP3  OH2          -6.8658809675       -3.8402830546       14.2674506566  CLST         108          1.0000000000
       323       108  TIP3  H1           -6.6344043724       -4.7089024513       14.5926162724  CLST         108          1.0000000000
       324       108  TIP3  H2           -7.5362494462       -4.0263273197       13.6284597247  CLST         108          1.0000000000
       325       109  TIP3  OH2          -4.1058700847       -1.0133277078       11.4332249638  CLST         109          1.0000000000
       326       109  TIP3  H1           -4.2029266419       -1.9566976444       11.6776838217  CLST         109          1.0000000000
       327       109  TIP3  H2           -4.3898908282       -1.0338771935       10.5074635527  CLST         109          1.0000000000
       328       110  TIP3  OH2           1.2449541459       -3.4538917497       -3.3441812201  CLST         110          1.0000000000
       329       110  TIP3  H1            1.1133421965       -4.1330046230       -4.0331157445  CLST         110          1.0000000000
       330       110  TIP3  H2            0.4237719383       -3.6104000436       -2.8548374791  CLST         110          1.0000000000
       331       111  TIP3  OH2          -5.0763648669       -1.0654785380       -6.3093870156  CLST         111          1.0000000000
       332       111  TIP3  H1           -4.7950632412       -0.4160037487       -6.9869225524  CLST         111          1.0000000000
       333       111  TIP3  H2           -4.4885748486       -1.8426293056       -6.5517307927  CLST         111          1.0000000000
       334       112  TIP3  OH2           2.2193197400      -12.2104643170       -4.4863538499  CLST         112          1.0000000000
       335       112  TIP3  H1            1.9562514710      -12.4804415504       -3.5677628825  CLST         112          1.0000000000
       336       112  TIP3  H2            1.9419242171      -11.3039224495       -4.4269892716  CLST         112          1.0000000000
       337       113  TIP3  OH2          14.1926652028        6.0388405918       12.5709611068  CLST         113          1.0000000000
       338       113  TIP3  H1           14.3389497927        6.9019722335       12.1072685672  CLST         113          1.0000000000
       339       113  TIP3  H2           14.6375133879        5.4627087759       11.9074432549  CLST         113          1.0000000000
       340       114  TIP3  OH2          -4.8182258037      -11.3731068637       -4.6281708371  CLST         114          1.0000000000
       341       114  TIP3  H1           -4.5657862492      -10.5780852264       -5.1077566884  CLST         114          1.0000000000
       342       114  TIP3  H2           -4.1765381487      -11.9460819238       -4.9918727781  CLST         114          1.0000000000
       343       115  TIP3  OH2           4.6281788297      -13.9533172806       -9.0956531728  CLST         115          1.0000000000
       344       115  TIP3  H1            4.4471921988      -14.6365459331       -9.7246320239  CLST         115          1.0000000000
       345       115  TIP3  H2            4.5423220670      -13.2057577627       -9.6115426919  CLST         115          1.0000000000
       346       116  TIP3  OH2           8.2452914482        5.6982569770      -14.2727787946  CLST         116          1.0000000000
       347       116  TIP3  H1            9.0977033145        5.5262324229      -13.9016051168  CLST         116          1.0000000000
       348       116  TIP3  H2            7.7984321892        4.8250137697      -14.1822355934  CLST         116          1.0000000000
       349       117  TIP3  OH2           0.1168842408        1.4375936709       13.1330300622  CLST         117          1.0000000000
       350       117  TIP3  H1           -0.5794960907        1.6087421567       13.8040729477  CLST         117          1.0000000000
       351       117  TIP3  H2            0.7625757976        2.0534915497       13.4468999627  CLST         117          1.0000000000
       352       118  TIP3  OH2          12.8465406783       -9.5798494825       -6.8584768870  CLST         118          1.0000000000
       353       118  TIP3  H1           12.5710432439       -9.6606238694       -5.9325055596  CLST         118          1.0000000000
       354       118  TIP3  H2           13.1541368525       -8.7008696317       -6.8038833603  CLST         118          1.0000000000
       355       119  TIP3  OH2         -11.8343447018       -1.4614087516        4.4422766277  CLST         119          1.0000000000
       356       119  TIP3  H1          -10.9196042427       -1.1807211976        4.2865559954  CLST         119          1.0000000000
       357       119  TIP3  H2          -11.9948156537       -1.2720638424        5.3995922716  CLST         119          1.0000000000
       358       120  TIP3  OH2         -11.6611292376        4.0892742490       -7.8208051981  CLST         120          1.0000000000
       359       120  TIP3  H1          -11.9752025907        4.5601313470       -8.6247359814  CLST         120          1.0000000000
       360       120  TIP3  H2          -12.5113956377        3.9090368668       -7.3761580055  CLST         120          1.0000000000
       361       121  TIP3  OH2          -5.9052404047       -6.9191423750        3.9863559790  CLST         121          1.0000000000
       362       121  TIP3  H1           -5.6425816236       -7.1896666858        3.0910304005  CLST         121          1.0000000000
       363       121  TIP3  H2           -6.8128132671       -6.7130634735        3.7869394524  CLST         121          1.0000000000
       364       122  TIP3  OH2           9.2533721994       -7.0674592675       -6.6827076367  CLST         122          1.0000000000
       365       122  TIP3  H1            9.1779999006       -8.0357327229       -6.5544318499  CLST         122          1.0000000000
       366       122  TIP3  H2           10.1165428863       -7.1143804299       -7.1989393633  CLST         122          1.0000000000
       367       123  TIP3  OH2          -6.9320603352      -10.4164175095        0.3007559176  CLST         123          1.0000000000
       368       123  TIP3  H1           -6.9547949403      -10.5915277252       -0.6553948509  CLST         123          1.0000000000
       369       123  TIP3  H2           -7.7302341139       -9.8977294721        0.5776479005  CLST         123          1.0000000000
       370       124  TIP3  OH2         -13.0310046496       -2.1019107060       -9.8507173041  CLST         124          1.0000000000
       371       124  TIP3  H1          -13.7777027034       -1.9726210851       -9.2993560590  CLST         124          1.0000000000
       372       124  TIP3  H2          -13.3372896360       -2.9347405935      -10.3744881469  CLST         124          1.0000000000
       373       125  TIP3  OH2           6.6838880579        2.7408613641       -5.2713805925  CLST         125          1.0000000000
       374       125  TIP3  H1            6.3491361136        2.0867422575       -4.6017428122  CLST         125          1.0000000000
       375       125  TIP3  H2            6.0406690374        2.5773950236       -5.9890236625  CLST         125          1.0000000000
       376       126  TIP3  OH2          12.3492756280       -9.7997828890        5.5740052532  CLST         126          1.0000000000
       377       126  TIP3  H1           12.2290392824      -10.4144026363        4.8581706509  CLST         126          1.0000000000
       378       126  TIP3  H2           12.4568417434      -10.3638528816        6.3385243458  CLST         126          1.0000000000
       379       127  TIP3  OH2         -10.4152925239       -5.9385555395       -5.0893901790  CLST         127          1.0000000000
       380       127  TIP3  H1          -10.0480527924       -5.2550784740       -4.5151200995  CLST         127          1.0000000000
       381       127  TIP3  H2           -9.7924127318       -6.6095968297       -4.8262072407  CLST         127          1.0000000000
       382       128  TIP3  OH2          -6.3772801110       -3.5732022397        7.0808966459  CLST         128          1.0000000000
       383       128  TIP3  H1           -5.9019912204       -4.4524844681        7.2453986462  CLST         128          1.0000000000
       384       128  TIP3  H2           -6.3185160038       -3.3007384174        6.1309117718  CLST         128          1.0000000000
       385       129  TIP3  OH2         -11.9487266212      -14.4887747793      -10.7090489612  CLST         129          1.0000000000
       386       129  TIP3  H1          -11.1232481361      -13.9876244566      -10.5275768289  CLST         129          1.0000000000
       387       129  TIP3  H2          -12.5819474366      -14.4256283287       -9.9984303261  CLST         129          1.0000000000
       388       130  TIP3  OH2           8.9169764894       -1.2349312047       14.3018593936  CLST         130          1.0000000000
       389       130  TIP3  H1            9.1892981736       -1.6043239003       15.1549000600  CLST         130          1.0000000000
       390       130  TIP3  H2            8.0796093641       -0.7706139478       14.5130433729  CLST         130          1.0000000000
       391       131  TIP3  OH2          -9.7430354292      -11.1882340766       -1.1490568485  CLST         131          1.0000000000
       392       131  TIP3  H1           -9.1561058238      -11.6339868145       -0.5303318178  CLST         131          1.0000000000
       393       131  TIP3  H2          -10.5756906296      -11.2206026447       -0.6354608502  CLST         131          1.0000000000
       394       132  TIP3  OH2           9.2702823933       -2.4532778877        9.3748957960  CLST         132          1.0000000000
       395       132  TIP3  H1            9.9937961758       -2.3405219314        8.6761217785  CLST         132          1.0000000000
       396       132  TIP3  H2            9.4942443309       -1.7374163079        9.9830785859  CLST         132          1.0000000000
       397       133  TIP3  OH2          -9.5112682721       -7.8741132166        7.6339795849  CLST         133          1.0000000000
       398       133  TIP3  H1           -8.9241497386       -8.5498784555        8.0048491810  CLST         133          1.0000000000
       399       133  TIP3  H2           -8.8875210422       -7.3670855883        7.1536267539  CLST         133          1.0000000000
       400       134  TIP3  OH2          -8.8585672235      -12.3813422634       14.6612139454  CLST         134          1.0000000000
       401       134  TIP3  H1           -9.5154529927      -12.3517504480       13.9983250593  CLST         134          1.0000000000
       402       134  TIP3  H2           -8.8315247884      -11.4378115414       14.9239272918  CLST         134          1.0000000000
       403       135  TIP3  OH2          -8.9688906783       10.9797390226        3.3344813613  CLST         135          1.0000000000
       404       135  TIP3  H1           -9.0993180166       10.4755682195        2.5274255808  CLST         135          1.0000000000
       405       135  TIP3  H2           -7.9958310062       11.0434246195        3.5147419577  CLST         135          1.0000000000
       406       136  TIP3  OH2          -5.1127177085       13.2815943651      -11.6275256051  CLST         136          1.0000000000
       407       136  TIP3  H1           -5.1757682912       13.1846708490      -10.6762159514  CLST         136          1.0000000000
       408       136  TIP3  H2           -5.9343851766       13.8409410239      -11.7870753955  CLST         136          1.0000000000
       409       137  TIP3  OH2          -5.7931433430      -11.1309493458        7.6636896593  CLST         137          1.0000000000
       410       137  TIP3  H1           -5.5228861230      -10.7559720736        6.7740914496  CLST         137          1.0000000000
       411       137  TIP3  H2           -5.0009408214      -11.6913001231        7.8924060305  CLST         137          1.0000000000
       412       138  TIP3  OH2          10.0501431797        8.4986136181       11.1272210394  CLST         138          1.0000000000
       413       138  TIP3  H1           10.0413316996        7.7533415314       11.7705593916  CLST         138          1.0000000000
       414       138  TIP3  H2           10.7488944687        9.1317237737       11.4270070000  CLST         138          1.0000000000
       415       139  TIP3  OH2           2.1022501298        9.7834393956       12.5088452610  CLST         139          1.0000000000
       416       139  TIP3  H1            3.0577803386        9.9375146813       12.3300979104  CLST         139          1.0000000000
       417       139  TIP3  H2            2.1486289299        9.1388988144       13.2513662530  CLST         139          1.0000000000
       418       140  TIP3  OH2          -3.0168498576       -1.4253596849       -7.9722121704  CLST         140          1.0000000000
       419       140  TIP3  H1           -2.5172524529       -0.6791441474       -7.6504229160  CLST         140          1.0000000000
       420       140  TIP3  H2           -2.4538476849       -2.1636932624       -7.7901093833  CLST         140          1.0000000000
       421       141  TIP3  OH2         -13.0124274304        5.4459408929       12.6649327950  CLST         141          1.0000000000
       422       141  TIP3  H1          -12.5612247904        6.2638122153       12.5615231394  CLST         141          1.0000000000
       423       141  TIP3  H2          -12.7366794035        5.0669142219       13.5492083496  CLST         141          1.0000000000
       424       142  TIP3  OH2          14.9535707928       -6.6454823009        5.1779716016  CLST         142          1.0000000000
       425       142  TIP3  H1           14.0152739314       -6.7714050563        4.8000001183  CLST         142          1.0000000000
       426       142  TIP3  H2           15.0009960163       -7.4562330297        5.6195133216  CLST         142          1.0000000000
       427       143  TIP3  OH2           6.5774541701       -6.8716972854        1.9443616950  CLST         143          1.0000000000
       428       143  TIP3  H1            6.9934328393       -6.9027011195        1.0837814631  CLST         143          1.0000000000
       429       143  TIP3  H2            5.6761299069       -7.0358410886        1.7041841720  CLST         143          1.0000000000
       430       144  TIP3  OH2          -1.5489003212      -14.0238809879        7.7747713962  CLST         144          1.0000000000
       431       144  TIP3  H1           -1.3244667399      -13.9461749946        6.8151182992  CLST         144          1.0000000000
       432       144  TIP3  H2           -0.9982017449      -14.8170530794        8.0539969169  CLST         144          1.0000000000
       433       145  TIP3  OH2           1.9031984509        7.1970197691       13.9525250037  CLST         145          1.0000000000
       434       145  TIP3  H1            0.9547458827        7.3169975927       13.8019717397  CLST         145          1.0000000000
       435       145  TIP3  H2            2.1327388512        6.7009350655       13.1351976611  CLST         145          1.0000000000
       436       146  TIP3  OH2          -5.8690246808       10.5903173567       -8.4460113388  CLST         146          1.0000000000
       437       146  TIP3  H1           -5.7104400623       11.5197328543       -8.3314587010  CLST         146          1.0000000000
       438       146  TIP3  H2           -6.8280778948       10.6063012290       -8.3313427406  CLST         146          1.0000000000
       439       147  TIP3  OH2           0.8921445802        2.8769673140       -4.4719260522  CLST         147          1.0000000000
       440       147  TIP3  H1            0.2965545700        3.2362053596       -3.7347498978  CLST         147          1.0000000000
       441       147  TIP3  H2            0.5142615832        3.3382759916       -5.2884530763  CLST         147          1.0000000000
       442       148  TIP3  OH2           7.4536674977        6.5509550454       -3.3828396773  CLST         148          1.0000000000
       443       148  TIP3  H1            7.8204518269        5.6955851389       -3.6173503903  CLST         148          1.0000000000
       444       148  TIP3  H2            6.6670776068        6.3701371614       -2.7615324482  CLST         148          1.0000000000
       445       149  TIP3  OH2          -4.1379847156      -13.1762588492       11.3615799222  CLST         149          1.0000000000
       446       149  TIP3  H1           -3.7426390282      -12.3316861236       11.4298002957  CLST         149          1.0000000000
       447       149  TIP3  H2           -3.4938236425      -13.7923728199       11.6915147407  CLST         149          1.0000000000
       448       150  TIP3  OH2          10.6651317342        1.2174513988       -2.4394460879  CLST         150          1.0000000000
       449       150  TIP3  H1           10.7377351722        1.1884971684       -1.4750182898  CLST         150          1.0000000000
       450       150  TIP3  H2            9.7489404135        0.9721188664       -2.4996364757  CLST         150          1.0000000000
       451       151  TIP3  OH2           3.8194043064      -12.2344662776        3.9514638023  CLST         151          1.0000000000
       452       151  TIP3  H1            3.9599701407      -13.0615338631        3.5105717281  CLST         151          1.0000000000
       453       151  TIP3  H2            3.2734450767      -11.6746069393        3.3071809401  CLST         151          1.0000000000
       454       152  TIP3  OH2           0.5881104597        6.0946804979       -5.9726998115  CLST         152          1.0000000000
       455       152  TIP3  H1            0.6343276132        7.0788410450       -6.1048968749  CLST         152          1.0000000000
       456       152  TIP3  H2            1.4031321095        5.7799920080       -6.4013321932  CLST         152          1.0000000000
       457       153  TIP3  OH2          -1.5003773003       10.0503811536       -7.6790291075  CLST         153          1.0000000000
       458       153  TIP3  H1           -1.7059439019       10.9104295248       -7.3445573604  CLST         153          1.0000000000
       459       153  TIP3  H2           -1.1736821749       10.2072907271       -8.5843184367  CLST         153          1.0000000000
       460       154  TIP3  OH2         -12.0744442302       -7.7085530833       -0.4661860521  CLST         154          1.0000000000
       461       154  TIP3  H1          -12.7076316693       -6.9907583882       -0.3568728251  CLST         154          1.0000000000
       462       154  TIP3  H2          -11.2356825153       -7.2108175631       -0.4593659889  CLST         154          1.0000000000
       463       155  TIP3  OH2          10.5351540021       -5.1265739134       14.4240318722  CLST         155          1.0000000000
       464       155  TIP3  H1           11.0793244952       -4.3783412766       14.6761722302  CLST         155          1.0000000000
       465       155  TIP3  H2           10.6795792734       -5.1329307065       13.4765077204  CLST         155          1.0000000000
       466       156  TIP3  OH2          14.1153026629        2.0887359548       -0.0157980186  CLST         156          1.0000000000
       467       156  TIP3  H1           14.7158399912        1.4066811973        0.3703998850  CLST         156          1.0000000000
       468       156  TIP3  H2           13.7351717031        1.5947821493       -0.7520088521  CLST         156          1.0000000000
       469       157  TIP3  OH2           0.1683532023       -5.0349926929       -8.5620115881  CLST         157          1.0000000000
       470       157  TIP3  H1            0.8341479308       -4.3372794849       -8.7594882863  CLST         157          1.0000000000
       471       157  TIP3  H2            0.5270735791       -5.8312119572       -9.0305625680  CLST         157          1.0000000000
       472       158  TIP3  OH2          -6.9172239087       -1.6512267087       -2.1247558732  CLST         158          1.0000000000
       473       158  TIP3  H1           -7.7193259050       -1.7128694811       -2.5483779040  CLST         158          1.0000000000
       474       158  TIP3  H2           -6.5612014769       -2.4403062717       -2.5804833604  CLST         158          1.0000000000
       475       159  TIP3  OH2           8.2458640827      -11.5653082988        8.0413759996  CLST         159          1.0000000000
       476       159  TIP3  H1            7.4422782615      -11.3884257154        7.4975247257  CLST         159          1.0000000000
       477       159  TIP3  H2            8.3136007355      -10.6824980121        8.5222944215  CLST         159          1.0000000000
       478       160  TIP3  OH2           4.5308706264       -9.2655641535        2.0091541618  CLST         160          1.0000000000
       479       160  TIP3  H1            4.2257406238       -8.8541735876        2.7921458235  CLST         160          1.0000000000
       480       160  TIP3  H2            5.1166008627       -9.8523578099        2.4760484543  CLST         160          1.0000000000
       481       161  TIP3  OH2           3.7503645837       -7.0737589459       -2.9689606004  CLST         161          1.0000000000
       482       161  TIP3  H1            4.5389682090       -7.5116596497       -2.5391293976  CLST         161          1.0000000000
       483       161  TIP3  H2            2.9968172307       -7.2482745363       -2.3598129593  CLST         161          1.0000000000
       484       162  TIP3  OH2           6.5919430109      -10.6076591068        3.0624173017  CLST         162          1.0000000000
       485       162  TIP3  H1            6.9984378368      -11.4935409860        3.0557524070  CLST         162          1.0000000000
       486       162  TIP3  H2            7.3860917966      -10.0389421499        3.0740178053  CLST         162          1.0000000000
       487       163  TIP3  OH2         -13.3961399797        0.2070231540        2.8364060017  CLST         163          1.0000000000
       488       163  TIP3  H1          -13.4442045375        1.0824028577        3.2504491985  CLST         163          1.0000000000
       489       163  TIP3  H2          -13.1031254493       -0.3274309377        3.6206861993  CLST         163          1.0000000000
       490       164  TIP3  OH2           8.4390749043        3.0415734078       10.1393108346  CLST         164          1.0000000000
       491       164  TIP3  H1            8.6908815010        3.8108475351        9.5558553652  CLST         164          1.0000000000
       492       164  TIP3  H2            9.3062489384        2.6154750049       10.2168072167  CLST         164          1.0000000000
       493       165  TIP3  OH2          14.1634492801        3.7089459562        5.0107479303  CLST         165          1.0000000000
       494       165  TIP3  H1           13.4360734488        4.3773539917        5.0338699740  CLST         165          1.0000000000
       495       165  TIP3  H2           13.8213249948        3.1083623182        4.3835661959  CLST         165          1.0000000000
       496       166  TIP3  OH2          -6.4384623870      -12.8451447227        5.1367898421  CLST         166          1.0000000000
       497       166  TIP3  H1           -6.7571122849      -12.2111178777        4.4035684557  CLST         166          1.0000000000
       498       166  TIP3  H2           -6.4300345982      -12.2601661974        5.8774761363  CLST         166          1.0000000000
       499       167  TIP3  OH2           0.0374104816       -7.7643087283       -9.3517821668  CLST         167          1.0000000000
       500       167  TIP3  H1            0.0580593030       -7.8500260442      -10.3416782819  CLST         167          1.0000000000
       501       167  TIP3  H2            0.9044921085       -7.7296090136       -8.9817405578  CLST         167          1.0000000000
       502       168  TIP3  OH2          -2.6329476701       -2.5617513465        1.5712663683  CLST         168          1.0000000000
       503       168  TIP3  H1           -3.3061666916       -3.1265519955        2.0944973832  CLST         168          1.0000000000
       504       168  TIP3  H2           -2.6099700319       -3.1558394884        0.7745902243  CLST         168          1.0000000000
       505       169  TIP3  OH2           0.8441234493       12.1111544342       12.7992459725  CLST         169          1.0000000000
       506       169  TIP3  H1            1.4592200785       11.3064533982       12.7231615432  CLST         169          1.0000000000
       507       169  TIP3  H2            1.4061604567       12.7211524276       13.2278767951  CLST         169          1.0000000000
       508       170  TIP3  OH2         -14.5920160439      -12.4054321774        4.9347979611  CLST         170          1.0000000000
       509       170  TIP3  H1          -13.8605950925      -12.5431988112        5.5653319077  CLST         170          1.0000000000
       510       170  TIP3  H2          -15.1899993617      -11.7147815657        5.3016944591  CLST         170          1.0000000000
       511       171  TIP3  OH2          -9.6538883171        2.5421773112        2.5599503440  CLST         171          1.0000000000
       512       171  TIP3  H1           -8.6934374115        2.7932197985        2.6572306933  CLST         171          1.0000000000
       513       171  TIP3  H2           -9.7939002901        2.1035965423        3.4183689898  CLST         171          1.0000000000
       514       172  TIP3  OH2          13.8902552875       -7.0440189602      -11.6986764643  CLST         172          1.0000000000
       515       172  TIP3  H1           13.8571401878       -7.2110290687      -10.7744755027  CLST         172          1.0000000000
       516       172  TIP3  H2           13.2356471476       -7.6883684457      -11.9802452338  CLST         172          1.0000000000
       517       173  TIP3  OH2         -12.8567020710       -5.4730472288        2.8724611117  CLST         173          1.0000000000
       518       173  TIP3  H1          -13.4208622569       -4.6410479765        3.0257799894  CLST         173          1.0000000000
       519       173  TIP3  H2          -12.8370672406       -5.5170605190        1.9177769270  CLST         173          1.0000000000
       520       174  TIP3  OH2           5.6079527199      -14.1289220844        5.8489373668  CLST         174          1.0000000000
       521       174  TIP3  H1            5.2378835430      -14.4972877864        6.7133500614  CLST         174          1.0000000000
       522       174  TIP3  H2            4.8654838912      -13.9421856360        5.3191777456  CLST         174          1.0000000000
       523       175  TIP3  OH2           4.2612623933       -3.5743063760        7.6564221732  CLST         175          1.0000000000
       524       175  TIP3  H1            3.6251815284       -4.2136468060        7.2889714917  CLST         175          1.0000000000
       525       175  TIP3  H2            4.9645087827       -3.7658405841        7.0364544298  CLST         175          1.0000000000
       526       176  TIP3  OH2           8.3218150464        2.7593008437      -10.8457538785  CLST         176          1.0000000000
       527       176  TIP3  H1            8.2518831199        2.1793295772      -10.0962921219  CLST         176          1.0000000000
       528       176  TIP3  H2            9.0419129960        2.2471683478      -11.3282835177  CLST         176          1.0000000000
       529       177  TIP3  OH2          -4.2125756327       10.8925116722        7.1313368234  CLST         177          1.0000000000
       530       177  TIP3  H1           -3.4163809189       10.9012348653        6.5421958699  CLST         177          1.0000000000
       531       177  TIP3  H2           -4.6491439924       10.0087538460        6.8656860227  CLST         177          1.0000000000
       532       178  TIP3  OH2           4.0815655358       -6.5388402319        0.8121966134  CLST         178          1.0000000000
       533       178  TIP3  H1            3.5272590411       -5.8136341398        0.3745853074  CLST         178          1.0000000000
       534       178  TIP3  H2            4.0224965163       -7.3159584996        0.2198158086  CLST         178          1.0000000000
       535       179  TIP3  OH2           2.7417017808       -9.9674588979        0.1863933815  CLST         179          1.0000000000
       536       179  TIP3  H1            1.9001760002       -9.7579296714        0.7045800642  CLST         179          1.0000000000
       537       179  TIP3  H2            3.3853103999       -9.5714896591        0.9001332305  CLST         179          1.0000000000
       538       180  TIP3  OH2          -1.8642487389       -3.5849338536        8.2428010376  CLST         180          1.0000000000
       539       180  TIP3  H1           -1.7863630728       -3.0210484107        9.0632976939  CLST         180          1.0000000000
       540       180  TIP3  H2           -2.5661150511       -3.1463168288        7.7623780500  CLST         180          1.0000000000
       541       181  TIP3  OH2         -12.0365842727        0.0678391544      -11.2810765076  CLST         181          1.0000000000
       542       181  TIP3  H1          -11.1004089898        0.2494988240      -11.1164939375  CLST         181          1.0000000000
       543       181  TIP3  H2          -12.1206434717       -0.7846236659      -10.8270171107  CLST         181          1.0000000000
       544       182  TIP3  OH2         -10.4495768185      -12.7848792419        5.2309157470  CLST         182          1.0000000000
       545       182  TIP3  H1          -10.9690387165      -12.9813817617        6.0012779694  CLST         182          1.0000000000
       546       182  TIP3  H2           -9.6939291285      -12.4519382227        5.7446079295  CLST         182          1.0000000000
       547       183  TIP3  OH2          11.7096267471        5.6253451678        4.5037931681  CLST         183          1.0000000000
       548       183  TIP3  H1           11.7498029624        5.4969916167        3.5324079349  CLST         183          1.0000000000
       549       183  TIP3  H2           11.0440787433        6.3800168324        4.6083658024  CLST         183          1.0000000000
       550       184  TIP3  OH2          -0.1854335807       -0.7851331959        7.9682954608  CLST         184          1.0000000000
       551       184  TIP3  H1            0.5432131548       -1.4309932995        7.6726748524  CLST         184          1.0000000000
       552       184  TIP3  H2           -0.6727654605       -1.2876117171        8.6378509287  CLST         184          1.0000000000
       553       185  TIP3  OH2           9.2517043304       12.8514394521       -3.7451930616  CLST         185          1.0000000000
       554       185  TIP3  H1            8.3440605265       12.5463646393       -3.6721118698  CLST         185          1.0000000000
       555       185  TIP3  H2            9.2313099441       13.3083370978       -4.6324935528  CLST         185          1.0000000000
       556       186  TIP3  OH2          11.6823606558       -0.1748909327        4.1870606511  CLST         186          1.0000000000
       557       186  TIP3  H1           11.8833874142       -0.1706829990        3.1963838117  CLST         186          1.0000000000
       558       186  TIP3  H2           10.9253729965        0.4926176648        4.0583764319  CLST         186          1.0000000000
       559       187  TIP3  OH2         -10.0491829906       -7.5678099733      -11.3586240550  CLST         187          1.0000000000
       560       187  TIP3  H1          -10.4024335065       -7.2487166577      -10.5211000098  CLST         187          1.0000000000
       561       187  TIP3  H2           -9.8925190051       -6.7259830345      -11.8634785163  CLST         187          1.0000000000
       562       188  TIP3  OH2         -15.4414534957       -0.6141837456        0.9775677142  CLST         188          1.0000000000
       563       188  TIP3  H1          -14.8741964807       -0.5174240500        1.8214794467  CLST         188          1.0000000000
       564       188  TIP3  H2          -14.8056207573       -1.1514629119        0.4070948519  CLST         188          1.0000000000
       565       189  TIP3  OH2          14.2425412362        0.3845045962       15.0339344852  CLST         189          1.0000000000
       566       189  TIP3  H1           15.0306768737        0.2762606629       15.5789173484  CLST         189          1.0000000000
       567       189  TIP3  H2           14.6870968539        0.2134650365       14.1486904826  CLST         189          1.0000000000
       568       190  TIP3  OH2           0.3958619670       -7.7919048939        3.9898215242  CLST         190          1.0000000000
       569       190  TIP3  H1            0.9725445341       -8.3615957465        4.4926602967  CLST         190          1.0000000000
       570       190  TIP3  H2            0.9252295847       -6.9728057551        3.8249796367  CLST         190          1.0000000000
       571       191  TIP3  OH2          -0.9234962633       14.2994777720       -4.0334875007  CLST         191          1.0000000000
       572       191  TIP3  H1           -1.7283506388       13.8676177095       -3.6814536654  CLST         191          1.0000000000
       573       191  TIP3  H2           -1.2648571464       15.1533261483       -4.1794625158  CLST         191          1.0000000000
       574       192  TIP3  OH2          -5.1699507408       -0.2071620236       -0.7744139589  CLST         192          1.0000000000
       575       192  TIP3  H1           -5.7812266547       -0.7392053463       -1.3046035617  CLST         192          1.0000000000
       576       192  TIP3  H2           -5.7908675010        0.3394727697       -0.2138569910  CLST         192          1.0000000000
       577       193  TIP3  OH2         -13.0137072477      -13.1861673147        6.9218663612  CLST         193          1.0000000000
       578       193  TIP3  H1          -13.1033439038      -14.0291082708        7.4596196428  CLST         193          1.0000000000
       579       193  TIP3  H2          -12.3992256937      -12.7090113042        7.4437286338  CLST         193          1.0000000000
       580       194  TIP3  OH2          12.8126124464       12.6202756424      -11.1716746008  CLST         194          1.0000000000
       581       194  TIP3  H1           13.1178381182       13.4816566975      -11.4901999041  CLST         194          1.0000000000
       582       194  TIP3  H2           12.9617879268       12.0090413982      -11.9074384747  CLST         194          1.0000000000
       583       195  TIP3  OH2           4.8859934499        2.6773353425        3.4986802726  CLST         195          1.0000000000
       584       195  TIP3  H1            4.1960481084        3.0796489445        3.0111955170  CLST         195          1.0000000000
       585       195  TIP3  H2            5.0900956429        1.9105863373        2.9561926752  CLST         195          1.0000000000
       586       196  TIP3  OH2           7.0623062699        6.5598213653       12.2606759779  CLST         196          1.0000000000
       587       196  TIP3  H1            7.9918240798        6.4383765129       12.5688968223  CLST         196          1.0000000000
       588       196  TIP3  H2            6.7580099678        7.0102379338       13.0777222891  CLST         196          1.0000000000
       589       197  TIP3  OH2          -4.4401999867       -9.4192182478        3.7083352718  CLST         197          1.0000000000
       590       197  TIP3  H1           -4.6947644347       -9.0695081089        2.7675526440  CLST         197          1.0000000000
       591       197  TIP3  H2           -3.8023274125       -8.6852457922        3.8908561680  CLST         197          1.0000000000
       592       198  TIP3  OH2          -4.3465118334       -8.8719736236       -6.0643546764  CLST         198          1.0000000000
       593       198  TIP3  H1           -4.0102490292       -8.5761337053       -6.9213724182  CLST         198          1.0000000000
       594       198  TIP3  H2           -5.3205094429       -8.9280368343       -6.2621138444  CLST         198          1.0000000000
       595       199  TIP3  OH2          11.5079096428        7.6712762336       -2.6834785257  CLST         199          1.0000000000
       596       199  TIP3  H1           11.0320562824        8.3057858791       -2.1282896473  CLST         199          1.0000000000
       597       199  TIP3  H2           12.3112151827        7.4935096394       -2.1827990675  CLST         199          1.0000000000
       598       200  TIP3  OH2          -4.5599169156       -7.3880491735       -1.2285114237  CLST         200          1.0000000000
       599       200  TIP3  H1           -3.7226512770       -7.6853824021       -1.6355288839  CLST         200          1.0000000000
       600       200  TIP3  H2           -4.6376125818       -6.4758076010       -1.5619199999  CLST         200          1.0000000000
       601       201  TIP3  OH2          13.8668781397      -10.4057606103       11.9108940950  CLST         201          1.0000000000
       602       201  TIP3  H1           14.3521472262       -9.8270454158       11.2782038284  CLST         201          1.0000000000
       603       201  TIP3  H2           12.8851888761      -10.2380697605       11.7721033402  CLST         201          1.0000000000
       604       202  TIP3  OH2          -2.8537733282       -9.5172857971        8.0328025349  CLST         202          1.0000000000
       605       202  TIP3  H1           -2.1535381331      -10.1800583549        8.2466768001  CLST         202          1.0000000000
       606       202  TIP3  H2           -3.1839502956       -9.9515916356        7.2718484783  CLST         202          1.0000000000
       607       203  TIP3  OH2          10.4836024937        4.3799009031       13.8492638266  CLST         203          1.0000000000
       608       203  TIP3  H1            9.6186327982        3.9610925267       13.4650503346  CLST         203          1.0000000000
       609       203  TIP3  H2           10.5873466374        3.9643850465       14.7240964475  CLST         203          1.0000000000
       610       204  TIP3  OH2          -5.2100796608        6.0948755778        6.0889678238  CLST         204          1.0000000000
       611       204  TIP3  H1           -5.8596215917        6.7928362101        5.8517724733  CLST         204          1.0000000000
       612       204  TIP3  H2           -4.7905616495        6.6716618125        6.7471501917  CLST         204          1.0000000000
       613       205  TIP3  OH2          -2.2801978478        1.3522895954       -4.8939152569  CLST         205          1.0000000000
       614       205  TIP3  H1           -1.5460710250        1.4104928624       -5.4401315034  CLST         205          1.0000000000
       615       205  TIP3  H2           -2.6844884488        2.1548463754       -5.3206401120  CLST         205          1.0000000000
       616       206  TIP3  OH2          -8.7014338217       -1.0907009034        4.6111752508  CLST         206          1.0000000000
       617       206  TIP3  H1           -9.0224827690       -1.6782428642        5.3216599509  CLST         206          1.0000000000
       618       206  TIP3  H2           -8.3947138624       -0.3901804945        5.1996593120  CLST         206          1.0000000000
       619       207  TIP3  OH2          -7.7130221247        9.6393995820        0.3269652558  CLST         207          1.0000000000
       620       207  TIP3  H1           -7.1444574048        8.8906043432        0.1504097978  CLST         207          1.0000000000
       621       207  TIP3  H2           -8.4540491286        9.1761415081        0.8115470207  CLST         207          1.0000000000
       622       208  TIP3  OH2           9.3531700076       14.3064224730      -11.6445021980  CLST         208          1.0000000000
       623       208  TIP3  H1            9.3915863528       13.7089817142      -12.3900920318  CLST         208          1.0000000000
       624       208  TIP3  H2           10.1727776780       14.8299308453      -11.8157068365  CLST         208          1.0000000000
       625       209  TIP3  OH2          -6.4574803763       -6.3415352952      -14.4671267013  CLST         209          1.0000000000
       626       209  TIP3  H1           -7.4714972811       -6.3310770220      -14.4292372776  CLST         209          1.0000000000
       627       209  TIP3  H2           -6.2648248522       -6.7519972287      -13.6155835161  CLST         209          1.0000000000
       628       210  TIP3  OH2          -2.1824551930        1.2438622993        8.0992287943  CLST         210          1.0000000000
       629       210  TIP3  H1           -1.4381251241        0.6541187003        8.1120726935  CLST         210          1.0000000000
       630       210  TIP3  H2           -2.2077083596        1.3676802912        9.0729190739  CLST         210          1.0000000000
       631       211  TIP3  OH2          -0.6922885554        0.0720248190       -2.8201094816  CLST         211          1.0000000000
       632       211  TIP3  H1           -1.2358504297       -0.6518121931       -2.4278173698  CLST         211          1.0000000000
       633       211  TIP3  H2           -1.2849824800        0.6366189021       -3.3253372216  CLST         211          1.0000000000
       634       212  TIP3  OH2           6.8164008041        3.0198106509        5.6546366970  CLST         212          1.0000000000
       635       212  TIP3  H1            6.7877124211        2.0820035433        5.9102585558  CLST         212          1.0000000000
       636       212  TIP3  H2            5.9566800019        3.1580775343        5.1724715244  CLST         212          1.0000000000
       637       213  TIP3  OH2           1.9411117582       -4.8112184718       -0.3623368483  CLST         213          1.0000000000
       638       213  TIP3  H1            1.8722582100       -4.0130966263       -0.9999941098  CLST         213          1.0000000000
       639       213  TIP3  H2            1.9450774952       -5.6066972412       -0.9125823786  CLST         213          1.0000000000
       640       214  TIP3  OH2           2.1796225464       -7.2530147127      -11.6941987846  CLST         214          1.0000000000
       641       214  TIP3  H1            2.6837833307       -8.0640995224      -11.6936683953  CLST         214          1.0000000000
       642       214  TIP3  H2            2.7038171862       -6.8187547651      -10.9795024718  CLST         214          1.0000000000
       643       215  TIP3  OH2         -12.7357643682        2.7200062272      -10.9895555947  CLST         215          1.0000000000
       644       215  TIP3  H1          -12.0936505371        2.9563311788      -10.3215742978  CLST         215          1.0000000000
       645       215  TIP3  H2          -12.7265395716        1.7324488256      -11.0177616579  CLST         215          1.0000000000
       646       216  TIP3  OH2          11.6641195928       -6.4629459975       -4.5406215447  CLST         216          1.0000000000
       647       216  TIP3  H1           10.9684388703       -7.1456176205       -4.7740327181  CLST         216          1.0000000000
       648       216  TIP3  H2           10.9187576120       -5.8114994815       -4.3589464296  CLST         216          1.0000000000
       649       217  TIP3  OH2          -6.4396420613        9.4979125698        4.1804597606  CLST         217          1.0000000000
       650       217  TIP3  H1           -5.5198075325        9.2172766025        4.3815961799  CLST         217          1.0000000000
       651       217  TIP3  H2           -6.9285500458        8.6908972794        4.0249600582  CLST         217          1.0000000000
       652       218  TIP3  OH2           5.8297885897       -7.4226409288       -8.4107668547  CLST         218          1.0000000000
       653       218  TIP3  H1            5.9767155038       -8.3752788323       -8.4930044105  CLST         218          1.0000000000
       654       218  TIP3  H2            5.8701658544       -7.3286442281       -7.4583954186  CLST         218          1.0000000000
       655       219  TIP3  OH2           2.5269732993      -13.5443341805        7.5749878281  CLST         219          1.0000000000
       656       219  TIP3  H1            2.1004704453      -13.1227655566        8.3216502459  CLST         219          1.0000000000
       657       219  TIP3  H2            3.4653590672      -13.7517868908        7.8963362895  CLST         219          1.0000000000
       658       220  TIP3  OH2           2.5076226513        1.4963442502      -11.1895320171  CLST         220          1.0000000000
       659       220  TIP3  H1            2.5765863561        1.7612360568      -12.1397806890  CLST         220          1.0000000000
       660       220  TIP3  H2            3.4161152882        1.1582485700      -11.1033113291  CLST         220          1.0000000000
       661       221  TIP3  OH2           1.6305952513       -0.5090398954        3.0062728409  CLST         221          1.0000000000
       662       221  TIP3  H1            0.6919739520       -0.4090884625        2.7717980471  CLST         221          1.0000000000
       663       221  TIP3  H2            1.7720600378        0.3003755785        3.4892544306  CLST         221          1.0000000000
       664       222  TIP3  OH2          12.0185611409        0.6053950326        1.6432870565  CLST         222          1.0000000000
       665       222  TIP3  H1           12.5106275888        0.4312034997        0.8463171366  CLST         222          1.0000000000
       666       222  TIP3  H2           11.1994568947        1.0391926005        1.3520885754  CLST         222          1.0000000000
       667       223  TIP3  OH2           1.1545239357      -10.4585272937      -13.2315553726  CLST         223          1.0000000000
       668       223  TIP3  H1            0.7930535582      -10.5954210728      -12.2900295525  CLST         223          1.0000000000
       669       223  TIP3  H2            0.9786682569       -9.5380684107      -13.3851215043  CLST         223          1.0000000000
       670       224  TIP3  OH2          -9.1674903875        6.8115553955      -13.0855584156  CLST         224          1.0000000000
       671       224  TIP3  H1           -9.7822202691        6.1317041330      -12.7921983191  CLST         224          1.0000000000
       672       224  TIP3  H2           -8.3110321863        6.3687610445      -12.9039067243  CLST         224          1.0000000000
       673       225  TIP3  OH2          13.2829177253        3.6926051329       -7.4984165814  CLST         225          1.0000000000
       674       225  TIP3  H1           12.7391524926        4.0880468104       -8.1800993195  CLST         225          1.0000000000
       675       225  TIP3  H2           12.6239830705        3.1212940949       -7.0655579127  CLST         225          1.0000000000
       676       226  TIP3  OH2           5.3346812242        4.9156487515       10.8559776155  CLST         226          1.0000000000
       677       226  TIP3  H1            6.0091114158        5.2415843182       11.4697936933  CLST         226          1.0000000000
       678       226  TIP3  H2            5.4538730208        3.9315858191       10.9999398675  CLST         226          1.0000000000
       679       227  TIP3  OH2          -6.0614756486        1.1516863853        9.7602675063  CLST         227          1.0000000000
       680       227  TIP3  H1           -6.5792834090        0.7034414161       10.4573677904  CLST         227          1.0000000000
       681       227  TIP3  H2           -5.7216428969        0.3411758459        9.4075907335  CLST         227          1.0000000000
       682       228  TIP3  OH2          -8.6398197308       -5.1081980357       10.4798039823  CLST         228          1.0000000000
       683       228  TIP3  H1           -8.2618560472       -4.4258677707        9.9059393765  CLST         228          1.0000000000
       684       228  TIP3  H2           -7.8661326855       -5.7021524096       10.4735532624  CLST         228          1.0000000000
       685       229  TIP3  OH2          11.2968748542        8.1121445697      -14.9700067173  CLST         229          1.0000000000
       686       229  TIP3  H1           11.3986872875        8.4826546158      -14.1048816070  CLST         229          1.0000000000
       687       229  TIP3  H2           11.9420760618        7.3797625008      -15.0087231334  CLST         229          1.0000000000
       688       230  TIP3  OH2         -10.8485095529       -3.5041502704        8.6957340592  CLST         230          1.0000000000
       689       230  TIP3  H1          -11.2496352332       -4.2628428892        8.2402678177  CLST         230          1.0000000000
       690       230  TIP3  H2          -11.5041423647       -3.5102430461        9.4005835218  CLST         230          1.0000000000
       691       231  TIP3  OH2          -0.3045281051        3.1381515153      -11.9852919056  CLST         231          1.0000000000
       692       231  TIP3  H1            0.0451845195        2.4961744299      -11.3496982351  CLST         231          1.0000000000
       693       231  TIP3  H2            0.3657904156        3.0094842248      -12.7033683210  CLST         231          1.0000000000
       694       232  TIP3  OH2           1.8048068576      -15.2547181228      -12.0591224997  CLST         232          1.0000000000
       695       232  TIP3  H1            1.6114944987      -14.8238837286      -11.2720715947  CLST         232          1.0000000000
       696       232  TIP3  H2            1.9308610961      -14.5550378818      -12.7321008998  CLST         232          1.0000000000
       697       233  TIP3  OH2         -12.2211315940        9.8068972865        2.0844827327  CLST         233          1.0000000000
       698       233  TIP3  H1          -12.6473590204        9.3769778239        2.8558249444  CLST         233          1.0000000000
       699       233  TIP3  H2          -13.0128016964        9.8284341127        1.5288804660  CLST         233          1.0000000000
       700       234  TIP3  OH2          -2.3482675140        4.4901530879       -8.2790851946  CLST         234          1.0000000000
       701       234  TIP3  H1           -2.1074401307        5.4351228755       -8.1243468501  CLST         234          1.0000000000
       702       234  TIP3  H2           -2.1101688886        4.3475349522       -9.2136566068  CLST         234          1.0000000000
       703       235  TIP3  OH2         -10.5423034497        5.1421480847       -5.6041734832  CLST         235          1.0000000000
       704       235  TIP3  H1          -11.0631194857        4.8477157164       -6.3477134449  CLST         235          1.0000000000
       705       235  TIP3  H2           -9.5991560801        4.8234702778       -5.8292090140  CLST         235          1.0000000000
       706       236  TIP3  OH2         -12.3554250701      -10.7485291206       13.5399453644  CLST         236          1.0000000000
       707       236  TIP3  H1          -11.7152955198      -10.8318960095       12.8475089272  CLST         236          1.0000000000
       708       236  TIP3  H2          -12.9750782421      -10.0513852519       13.1520544638  CLST         236          1.0000000000
       709       237  TIP3  OH2          -6.2249704849       -6.3702644339       10.5630311847  CLST         237          1.0000000000
       710       237  TIP3  H1           -6.1151470192       -7.2108131148       10.0531381392  CLST         237          1.0000000000
       711       237  TIP3  H2           -5.2155983576       -6.2014762793       10.8254108909  CLST         237          1.0000000000
       712       238  TIP3  OH2          -0.9400756862        3.6267384574       -2.7342488088  CLST         238          1.0000000000
       713       238  TIP3  H1           -1.2319657328        4.2249018213       -3.4294132966  CLST         238          1.0000000000
       714       238  TIP3  H2           -1.7435151176        3.2784864792       -2.4391864639  CLST         238          1.0000000000
       715       239  TIP3  OH2           8.0293659930        7.3485660977       -0.0548191542  CLST         239          1.0000000000
       716       239  TIP3  H1            8.3652037120        6.5869081154       -0.4750122747  CLST         239          1.0000000000
       717       239  TIP3  H2            8.9282984894        7.8253004935        0.0807039842  CLST         239          1.0000000000
       718       240  TIP3  OH2         -10.0017426022        8.4959418856        1.7274440625  CLST         240          1.0000000000
       719       240  TIP3  H1          -10.8642261488        8.9430449697        1.7077613690  CLST         240          1.0000000000
       720       240  TIP3  H2          -10.1625163730        7.5502142490        2.0422123275  CLST         240          1.0000000000
       721       241  TIP3  OH2          10.9853408207       -4.5726903635       -1.7603639825  CLST         241          1.0000000000
       722       241  TIP3  H1           10.4006886742       -4.7863509637       -2.5161999876  CLST         241          1.0000000000
       723       241  TIP3  H2           11.8249999252       -4.9595511516       -2.0359799257  CLST         241          1.0000000000
       724       242  TIP3  OH2           9.3147071947       -1.5881356777       -4.5251828094  CLST         242          1.0000000000
       725       242  TIP3  H1           10.2936328859       -1.4151142153       -4.5589645612  CLST         242          1.0000000000
       726       242  TIP3  H2            9.2790955850       -2.0333611578       -3.6848583868  CLST         242          1.0000000000
       727       243  TIP3  OH2           5.1018201380        9.3845750215      -12.1718908909  CLST         243          1.0000000000
       728       243  TIP3  H1            4.5311150631       10.1482557911      -11.8400933367  CLST         243          1.0000000000
       729       243  TIP3  H2            4.8603824865        8.6836615266      -11.5259761881  CLST         243          1.0000000000
       730       244  TIP3  OH2          -9.1558011275       -6.5509193620      -14.3235553487  CLST         244          1.0000000000
       731       244  TIP3  H1           -9.6612557624       -6.0636156400      -13.7028747343  CLST         244          1.0000000000
       732       244  TIP3  H2           -9.8774183844       -7.0862980794      -14.7533028857  CLST         244          1.0000000000
       733       245  TIP3  OH2         -13.2235571604        6.2147432262        2.1822750748  CLST         245          1.0000000000
       734       245  TIP3  H1          -13.1507128577        6.8774599733        2.9261757317  CLST         245          1.0000000000
       735       245  TIP3  H2          -12.3626880864        6.2781048440        1.6851411918  CLST         245          1.0000000000
       736       246  TIP3  OH2          -9.2313315404        6.3999209103       -1.8711254331  CLST         246          1.0000000000
       737       246  TIP3  H1          -10.0957520817        6.3369612119       -2.2890289315  CLST         246          1.0000000000
       738       246  TIP3  H2           -8.9844257094        7.3170723420       -1.8110658403  CLST         246          1.0000000000
       739       247  TIP3  OH2          -4.5588141283        7.9609970318        7.9250041496  CLST         247          1.0000000000
       740       247  TIP3  H1           -3.8628667253        8.4922566391        8.2562821865  CLST         247          1.0000000000
       741       247  TIP3  H2           -4.7719649509        7.5739382599        8.8077465067  CLST         247          1.0000000000
       742       248  TIP3  OH2           9.9130846424       -8.2600545715        8.0552996749  CLST         248          1.0000000000
       743       248  TIP3  H1            9.0573981536       -8.5063442187        7.7117862028  CLST         248          1.0000000000
       744       248  TIP3  H2           10.1661291274       -7.6484203630        7.3151015615  CLST         248          1.0000000000
       745       249  TIP3  OH2           9.6562134369        5.6531334602       -1.1616756017  CLST         249          1.0000000000
       746       249  TIP3  H1           10.0250823339        4.8516990431       -0.9008658256  CLST         249          1.0000000000
       747       249  TIP3  H2           10.2961236064        6.0017753489       -1.8017901485  CLST         249          1.0000000000
       748       250  TIP3  OH2           5.8414530821       -4.7504594720        3.3469072048  CLST         250          1.0000000000
       749       250  TIP3  H1            6.3371235255       -5.4665176242        2.9086179028  CLST         250          1.0000000000
       750       250  TIP3  H2            5.2103864831       -5.1409527473        3.9431370814  CLST         250          1.0000000000
       751       251  TIP3  OH2         -14.6442841400      -11.8064359314        1.9164171765  CLST         251          1.0000000000
       752       251  TIP3  H1          -14.4231578035      -12.5243295260        1.2964800249  CLST         251          1.0000000000
       753       251  TIP3  H2          -13.9626168230      -11.8057984086        2.5651904544  CLST         251          1.0000000000
       754       252  TIP3  OH2          -7.3304145252      -15.1194764482      -11.9376194023  CLST         252          1.0000000000
       755       252  TIP3  H1           -8.2133891709      -15.5543331875      -11.8873812328  CLST         252          1.0000000000
       756       252  TIP3  H2           -7.4249488419      -14.3078015042      -12.4284712399  CLST         252          1.0000000000
       757       253  TIP3  OH2           0.8114422370        7.5559818644        7.8527631424  CLST         253          1.0000000000
       758       253  TIP3  H1            0.6278254253        7.2937406546        6.9164916068  CLST         253          1.0000000000
       759       253  TIP3  H2            1.7496550095        7.4807365499        7.8840518034  CLST         253          1.0000000000
       760       254  TIP3  OH2         -11.5643064637        1.4050041991      -14.6360454098  CLST         254          1.0000000000
       761       254  TIP3  H1          -12.3216076455        0.9008877455      -14.2856241337  CLST         254          1.0000000000
       762       254  TIP3  H2          -12.0208447334        2.0335662442      -15.2204900972  CLST         254          1.0000000000
       763       255  TIP3  OH2           4.2468589542       -0.1385500592       -0.9220878747  CLST         255          1.0000000000
       764       255  TIP3  H1            4.1163728204       -0.9899092098       -0.4474207549  CLST         255          1.0000000000
       765       255  TIP3  H2            3.2795775141        0.0116751617       -1.0403874091  CLST         255          1.0000000000
       766       256  TIP3  OH2          14.0346291065       -3.1608926597      -12.1103730601  CLST         256          1.0000000000
       767       256  TIP3  H1           14.6190248395       -2.6519857796      -12.6631693811  CLST         256          1.0000000000
       768       256  TIP3  H2           13.6181384081       -3.8470137903      -12.6642464334  CLST         256          1.0000000000
       769       257  TIP3  OH2          -6.5218262840      -13.4147762960       10.1940300180  CLST         257          1.0000000000
       770       257  TIP3  H1           -6.7684133340      -14.3112354483        9.8151870183  CLST         257          1.0000000000
       771       257  TIP3  H2           -5.7013240474      -13.7025650342       10.6037537804  CLST         257          1.0000000000
       772       258  TIP3  OH2         -10.4021916166      -11.8465087476       -6.5967389853  CLST         258          1.0000000000
       773       258  TIP3  H1           -9.8285727587      -12.2106917242       -5.9599975601  CLST         258          1.0000000000
       774       258  TIP3  H2          -10.4253701556      -10.9519211220       -6.2429200847  CLST         258          1.0000000000
       775       259  TIP3  OH2           2.7107942203        1.6077752269       14.0481842332  CLST         259          1.0000000000
       776       259  TIP3  H1            3.3375109279        0.9180988865       13.9765748220  CLST         259          1.0000000000
       777       259  TIP3  H2            2.5176840200        1.5395241297       14.9633853278  CLST         259          1.0000000000
       778       260  TIP3  OH2         -10.7499619827      -10.4088280097       -9.5552561590  CLST         260          1.0000000000
       779       260  TIP3  H1          -11.1285252183      -10.6118734001      -10.4002848811  CLST         260          1.0000000000
       780       260  TIP3  H2          -11.0799749945       -9.4742220455       -9.4459873355  CLST         260          1.0000000000
       781       261  TIP3  OH2           7.0209976842        1.0185111417       -0.1355880180  CLST         261          1.0000000000
       782       261  TIP3  H1            6.9806879436        1.7122410064       -0.7760977603  CLST         261          1.0000000000
       783       261  TIP3  H2            6.1147555705        0.7588242369       -0.2362506867  CLST         261          1.0000000000
       784       262  TIP3  OH2          -1.9902195431       14.3688145074        3.0694397080  CLST         262          1.0000000000
       785       262  TIP3  H1           -2.5535549309       14.1619988883        3.9095931268  CLST         262          1.0000000000
       786       262  TIP3  H2           -1.4658742311       13.6427614014        2.9191952725  CLST         262          1.0000000000
       787       263  TIP3  OH2           6.7269411501        3.7814442178        1.8114060101  CLST         263          1.0000000000
       788       263  TIP3  H1            6.5022119038        3.0597107489        1.2111104406  CLST         263          1.0000000000
       789       263  TIP3  H2            6.1151679078        3.5605077853        2.4727353053  CLST         263          1.0000000000
       790       264  TIP3  OH2          -3.1841628972       10.4140234635       10.2500187018  CLST         264          1.0000000000
       791       264  TIP3  H1           -2.4287958208       10.9668015245       10.4889514136  CLST         264          1.0000000000
       792       264  TIP3  H2           -2.9409193720       10.0651940376        9.4181428435  CLST         264          1.0000000000
       793       265  TIP3  OH2         -12.8102970984       12.6954648684       -0.1416444058  CLST         265          1.0000000000
       794       265  TIP3  H1          -12.7404295749       12.6992523120       -1.1318404798  CLST         265          1.0000000000
       795       265  TIP3  H2          -13.3017449054       11.8632529803        0.0328681215  CLST         265          1.0000000000
       796       266  TIP3  OH2          -4.1130648401        1.7621416481        4.1214797152  CLST         266          1.0000000000
       797       266  TIP3  H1           -4.2869389769        0.9458161714        3.5548712735  CLST         266          1.0000000000
       798       266  TIP3  H2           -3.7722226784        2.3870504730        3.4347574824  CLST         266          1.0000000000
       799       267  TIP3  OH2          -7.2643548214       11.6471290692       -5.4830390595  CLST         267          1.0000000000
       800       267  TIP3  H1           -7.8789260029       11.4678963811       -6.2277499746  CLST         267          1.0000000000
       801       267  TIP3  H2           -8.0036807579       11.7109348437       -4.8429539233  CLST         267          1.0000000000
       802       268  TIP3  OH2           4.9643118161        3.4189310260      -14.0804735591  CLST         268          1.0000000000
       803       268  TIP3  H1            5.6849492862        3.6126483010      -13.4763287212  CLST         268          1.0000000000
       804       268  TIP3  H2            4.9839625128        4.2905558432      -14.5925767502  CLST         268          1.0000000000
       805       269  TIP3  OH2           9.2953907351       -0.3824117388       11.3605120080  CLST         269          1.0000000000
       806       269  TIP3  H1           10.1839474479       -0.0293066549       11.4217393375  CLST         269          1.0000000000
       807       269  TIP3  H2            9.1995545602       -0.7337580646       12.2592721141  CLST         269          1.0000000000
       808       270  TIP3  OH2          -8.0596774576       -5.8450994878        6.2753823067  CLST         270          1.0000000000
       809       270  TIP3  H1           -8.1262244596       -5.9200655623        5.2944599061  CLST         270          1.0000000000
       810       270  TIP3  H2           -7.1375283868       -5.5867725220        6.4675233384  CLST         270          1.0000000000
       811       271  TIP3  OH2         -11.8852462435       12.3997952202       11.6559386390  CLST         271          1.0000000000
       812       271  TIP3  H1          -11.3408357130       12.1087281064       12.4345350662  CLST         271          1.0000000000
       813       271  TIP3  H2          -11.1990945946       12.8639836906       11.1348056763  CLST         271          1.0000000000
       814       272  TIP3  OH2           7.0835118257      -14.0552975965        3.2774437878  CLST         272          1.0000000000
       815       272  TIP3  H1            8.0193170506      -13.7179765145        3.3698964081  CLST         272          1.0000000000
       816       272  TIP3  H2            6.8681791716      -14.0330891394        4.2455179104  CLST         272          1.0000000000
       817       273  TIP3  OH2          -8.5766350469       10.9852513850       -7.5643207253  CLST         273          1.0000000000
       818       273  TIP3  H1           -9.3435875689       11.3388163675       -8.1425351709  CLST         273          1.0000000000
       819       273  TIP3  H2           -8.9579145663       10.1270408593       -7.3937384696  CLST         273          1.0000000000
       820       274  TIP3  OH2          -6.8542497321        0.6306223643       13.8371596623  CLST         274          1.0000000000
       821       274  TIP3  H1           -7.4688889895        0.9626335455       14.5182292346  CLST         274          1.0000000000
       822       274  TIP3  H2           -7.4348795772        0.3580683382       13.1232397480  CLST         274          1.0000000000
       823       275  TIP3  OH2           3.7869967850      -15.2490157615       -0.8711532431  CLST         275          1.0000000000
       824       275  TIP3  H1            3.3310909790      -14.4000691128       -0.6982150141  CLST         275          1.0000000000
       825       275  TIP3  H2            4.1149818827      -15.0341387763       -1.6875038491  CLST         275          1.0000000000
       826       276  TIP3  OH2           2.4270796168       -9.9054840749        7.1804656929  CLST         276          1.0000000000
       827       276  TIP3  H1            2.3437624586      -10.4216800125        8.0294790932  CLST         276          1.0000000000
       828       276  TIP3  H2            3.0772074262       -9.2432861083        7.3967985018  CLST         276          1.0000000000
       829       277  TIP3  OH2          -7.1278910094        7.0420125946        2.9194744801  CLST         277          1.0000000000
       830       277  TIP3  H1           -7.7256387797        7.0794243309        2.1851174092  CLST         277          1.0000000000
       831       277  TIP3  H2           -6.6847819975        6.2150242143        2.6999028791  CLST         277          1.0000000000
       832       278  TIP3  OH2           4.9823905610      -10.5050208306       10.0483299483  CLST         278          1.0000000000
       833       278  TIP3  H1            4.9497383889       -9.8830884319        9.2748306153  CLST         278          1.0000000000
       834       278  TIP3  H2            4.4033299647      -10.0900109062       10.6225711920  CLST         278          1.0000000000
       835       279  TIP3  OH2          11.9738730553       -5.7888695515        7.2970389421  CLST         279          1.0000000000
       836       279  TIP3  H1           11.4744494533       -5.8921860985        6.4953947372  CLST         279          1.0000000000
       837       279  TIP3  H2           12.6837600177       -5.1434634929        7.1077355768  CLST         279          1.0000000000
       838       280  TIP3  OH2           6.6121091289       -8.8225188906       12.7265447082  CLST         280          1.0000000000
       839       280  TIP3  H1            7.0555747736       -9.7356648202       12.5782767617  CLST         280          1.0000000000
       840       280  TIP3  H2            7.3008965001       -8.1090843116       12.6829138420  CLST         280          1.0000000000
       841       281  TIP3  OH2          -1.4080077074        4.7089643700       10.7835549003  CLST         281          1.0000000000
       842       281  TIP3  H1           -1.9872887184        3.9803832479       10.4265787629  CLST         281          1.0000000000
       843       281  TIP3  H2           -1.0548854037        4.5155276507       11.6720225375  CLST         281          1.0000000000
       844       282  TIP3  OH2          10.6349986420       10.8413368996      -10.8835562422  CLST         282          1.0000000000
       845       282  TIP3  H1           11.1252348782       10.0372633210      -11.1683898456  CLST         282          1.0000000000
       846       282  TIP3  H2           11.4233745530       11.4198840764      -10.8076548151  CLST         282          1.0000000000
       847       283  TIP3  OH2          -3.0735990551       -4.3756537656       -0.1074656776  CLST         283          1.0000000000
       848       283  TIP3  H1           -3.8996562873       -4.6241232168       -0.6179485160  CLST         283          1.0000000000
       849       283  TIP3  H2           -3.0194379459       -5.1610436225        0.4520447956  CLST         283          1.0000000000
       850       284  TIP3  OH2           4.1846272632       10.7694596364        2.0826860385  CLST         284          1.0000000000
       851       284  TIP3  H1            4.7894342962       10.1164650844        1.6303876612  CLST         284          1.0000000000
       852       284  TIP3  H2            3.4893893497       10.2290182444        2.4851659557  CLST         284          1.0000000000
       853       285  TIP3  OH2         -11.6900727244       -6.1545996777        8.2401957866  CLST         285          1.0000000000
       854       285  TIP3  H1          -10.7578879395       -6.3748967951        8.1217070360  CLST         285          1.0000000000
       855       285  TIP3  H2          -12.0559841004       -6.2446085773        7.3102905853  CLST         285          1.0000000000
       856       286  TIP3  OH2          -2.7964682696       -9.8610429344      -10.7613914555  CLST         286          1.0000000000
       857       286  TIP3  H1           -2.1193990820       -9.4571573011      -11.2478264407  CLST         286          1.0000000000
       858       286  TIP3  H2           -3.0431156087      -10.6755467464      -11.2013969406  CLST         286          1.0000000000
       859       287  TIP3  OH2           2.7831764363       -0.7470533503       -7.9396777680  CLST         287          1.0000000000
       860       287  TIP3  H1            2.7071529117        0.2249785464       -7.9966998501  CLST         287          1.0000000000
       861       287  TIP3  H2            3.7671117785       -0.7665427550       -7.7788124113  CLST         287          1.0000000000
       862       288  TIP3  OH2          13.8695478810      -14.5835049957       -8.3726980003  CLST         288          1.0000000000
       863       288  TIP3  H1           13.6222813874      -13.8349464385       -7.7364504926  CLST         288          1.0000000000
       864       288  TIP3  H2           14.4034051966      -15.1359583388       -7.7573770815  CLST         288          1.0000000000
       865       289  TIP3  OH2          14.5647465506        3.7014245077      -10.1729808323  CLST         289          1.0000000000
       866       289  TIP3  H1           14.6320974514        3.5299955020       -9.2656442768  CLST         289          1.0000000000
       867       289  TIP3  H2           15.4610093611        3.5712449992      -10.5651657052  CLST         289          1.0000000000
       868       290  TIP3  OH2          11.8245050549        0.9889125712       11.9722537571  CLST         290          1.0000000000
       869       290  TIP3  H1           11.3970455527        1.0365527670       12.8666363159  CLST         290          1.0000000000
       870       290  TIP3  H2           11.9359694488        1.9463226090       11.8145070189  CLST         290          1.0000000000
       871       291  TIP3  OH2         -11.3036436519       -9.5288513937       -2.7154677565  CLST         291          1.0000000000
       872       291  TIP3  H1          -10.6741706382       -9.9850394196       -2.1706287958  CLST         291          1.0000000000
       873       291  TIP3  H2          -11.3821560994       -8.6916846482       -2.2407496339  CLST         291          1.0000000000
       874       292  TIP3  OH2           9.0872550281       -1.8737943586      -11.6542125538  CLST         292          1.0000000000
       875       292  TIP3  H1            8.2867268072       -2.4622837269      -11.7216531814  CLST         292          1.0000000000
       876       292  TIP3  H2            9.4902981312       -2.0777360843      -10.7752283865  CLST         292          1.0000000000
       877       293  TIP3  OH2           2.3693313695        2.7931033949      -13.6680632113  CLST         293          1.0000000000
       878       293  TIP3  H1            2.1078227327        3.7198259393      -13.5698508031  CLST         293          1.0000000000
       879       293  TIP3  H2            3.2812267389        2.9061532144      -13.9300075837  CLST         293          1.0000000000
       880       294  TIP3  OH2           1.7374125565        8.0478068667        0.8277394236  CLST         294          1.0000000000
       881       294  TIP3  H1            1.1876831849        7.2582713326        1.0259311178  CLST         294          1.0000000000
       882       294  TIP3  H2            2.2071872206        8.2478939912        1.6769300808  CLST         294          1.0000000000
       883       295  TIP3  OH2           3.8681944178       12.8984477284       -4.3324002757  CLST         295          1.0000000000
       884       295  TIP3  H1            3.0928083887       13.1996247803       -3.8300024631  CLST         295          1.0000000000
       885       295  TIP3  H2            4.3095957002       13.6912018431       -4.6775658922  CLST         295          1.0000000000
       886       296  TIP3  OH2           2.6196684254        5.6872378656      -11.4116266579  CLST         296          1.0000000000
       887       296  TIP3  H1            2.3038723199        5.4807472518      -12.3411519119  CLST         296          1.0000000000
       888       296  TIP3  H2            1.8446456554        5.5450405477      -10.8670129364  CLST         296          1.0000000000
       889       297  TIP3  OH2          13.6422129896        0.1251036032        8.9509148345  CLST         297          1.0000000000
       890       297  TIP3  H1           13.8206396368        1.0708757180        9.0884675152  CLST         297          1.0000000000
       891       297  TIP3  H2           14.5647724066       -0.1042995932        8.7188582172  CLST         297          1.0000000000
       892       298  TIP3  OH2          12.1539584190       -5.2157228727      -12.4839073759  CLST         298          1.0000000000
       893       298  TIP3  H1           11.4093049407       -5.7298783376      -12.9054926544  CLST         298          1.0000000000
       894       298  TIP3  H2           12.8621539097       -5.8984164985      -12.3310335112  CLST         298          1.0000000000
       895       299  TIP3  OH2           3.4155207515       -5.7939657988       -7.5235078409  CLST         299          1.0000000000
       896       299  TIP3  H1            3.4900951851       -4.8382172662       -7.3738184848  CLST         299          1.0000000000
       897       299  TIP3  H2            3.6908337958       -6.2310304134       -6.7423460539  CLST         299          1.0000000000
       898       300  TIP3  OH2          10.2135985133       -6.8576544841      -13.9175810894  CLST         300          1.0000000000
       899       300  TIP3  H1           10.2724255179       -6.2689359046      -14.7721222138  CLST         300          1.0000000000
       900       300  TIP3  H2            9.2979049710       -6.8003717435      -13.6923009271  CLST         300          1.0000000000
       901       301  TIP3  OH2          11.3305357413       -6.7134283312        0.3114641015  CLST         301          1.0000000000
       902       301  TIP3  H1           11.0928643976       -5.8353921703        0.2942837750  CLST         301          1.0000000000
       903       301  TIP3  H2           10.8147821514       -7.1230181216       -0.3479393961  CLST         301          1.0000000000
       904       302  TIP3  OH2          11.6893773503       -7.2456434864       12.1878469480  CLST         302          1.0000000000
       905       302  TIP3  H1           12.2037107042       -6.7990848324       11.4971232609  CLST         302          1.0000000000
       906       302  TIP3  H2           11.6200341550       -8.0817766754       11.7797369554  CLST         302          1.0000000000
       907       303  TIP3  OH2          -8.9108708957       11.5935822055        6.9012622991  CLST         303          1.0000000000
       908       303  TIP3  H1           -9.5869001990       12.1658122620        6.3874434248  CLST         303          1.0000000000
       909       303  TIP3  H2           -8.2835836195       12.2451668825        7.2706919033  CLST         303          1.0000000000
       910       304  TIP3  OH2          -1.9669013176        8.1505600445       -0.7282754950  CLST         304          1.0000000000
       911       304  TIP3  H1           -2.3755189818        7.6045428243       -0.0806363219  CLST         304          1.0000000000
       912       304  TIP3  H2           -2.7753418674        8.4955520606       -1.2141765632  CLST         304          1.0000000000
       913       305  TIP3  OH2          -2.3131895920       -6.2146978375      -10.3609187989  CLST         305          1.0000000000
       914       305  TIP3  H1           -2.1187911748       -5.2535731995      -10.4640418125  CLST         305          1.0000000000
       915       305  TIP3  H2           -2.1872084000       -6.5658415072      -11.2678792909  CLST         305          1.0000000000
       916       306  TIP3  OH2          -8.4268029236      -14.8192918986       -6.9604359099  CLST         306          1.0000000000
       917       306  TIP3  H1           -7.7009842231      -15.4604450384       -6.7335846412  CLST         306          1.0000000000
       918       306  TIP3  H2           -8.3003191029      -14.2055359818       -6.2196405765  CLST         306          1.0000000000
       919       307  TIP3  OH2           0.7411291195       10.1743128086      -14.5441114253  CLST         307          1.0000000000
       920       307  TIP3  H1            1.0007267456       11.0167146385      -14.1398240290  CLST         307          1.0000000000
       921       307  TIP3  H2            1.3261498391        9.5587073000      -14.0823256599  CLST         307          1.0000000000
       922       308  TIP3  OH2          12.6128421342       -3.4628635095       13.3426657553  CLST         308          1.0000000000
       923       308  TIP3  H1           12.7068265100       -3.0004810482       12.5046154534  CLST         308          1.0000000000
       924       308  TIP3  H2           13.4235690453       -4.0025060807       13.4226355651  CLST         308          1.0000000000
       925       309  TIP3  OH2          12.9006879984       12.5820559115       14.8706806147  CLST         309          1.0000000000
       926       309  TIP3  H1           12.1757075421       12.2441781905       14.5388679350  CLST         309          1.0000000000
       927       309  TIP3  H2           13.3207014832       13.0984301767       14.2788987922  CLST         309          1.0000000000
       928       310  TIP3  OH2           4.3076686461       14.5489007087       -6.4531933657  CLST         310          1.0000000000
       929       310  TIP3  H1            4.9064453470       14.7037814231       -7.1864361808  CLST         310          1.0000000000
       930       310  TIP3  H2            3.4299382268       14.3992824073       -6.9131859231  CLST         310          1.0000000000
       931       311  TIP3  OH2          -5.7697802241        6.0697347185       -5.2385321153  CLST         311          1.0000000000
       932       311  TIP3  H1           -6.6201095463        5.5906358871       -5.0631837764  CLST         311          1.0000000000
       933       311  TIP3  H2           -5.5615308327        5.7020840195       -6.1340490626  CLST         311          1.0000000000
       934       312  TIP3  OH2           5.1105492616       -8.6275132246        7.9430494817  CLST         312          1.0000000000
       935       312  TIP3  H1            4.9264484734       -7.6672609215        8.2574991138  CLST         312          1.0000000000
       936       312  TIP3  H2            6.0082924132       -8.5082257787        7.6083963883  CLST         312          1.0000000000
       937       313  TIP3  OH2          -2.3277553122        7.9357099731       11.1495576650  CLST         313          1.0000000000
       938       313  TIP3  H1           -2.9378462706        8.6556721160       11.3140856893  CLST         313          1.0000000000
       939       313  TIP3  H2           -2.9900023760        7.1395755445       10.9874098112  CLST         313          1.0000000000
       940       314  TIP3  OH2           9.4497480207       -2.3083347472       -1.9338254478  CLST         314          1.0000000000
       941       314  TIP3  H1            9.9251995056       -3.0043421581       -1.5197934196  CLST         314          1.0000000000
       942       314  TIP3  H2            8.7848830114       -2.0445333696       -1.2625891317  CLST         314          1.0000000000
       943       315  TIP3  OH2           4.6206350462       10.1462569400       -2.5979737685  CLST         315          1.0000000000
       944       315  TIP3  H1            3.9467517815        9.4412427107       -2.4380499688  CLST         315          1.0000000000
       945       315  TIP3  H2            4.2867537485       10.9183149854       -2.0288958573  CLST         315          1.0000000000
       946       316  TIP3  OH2          13.8886083777       -6.6330319184       -5.9439279439  CLST         316          1.0000000000
       947       316  TIP3  H1           13.0522227548       -6.5538936449       -5.4576853030  CLST         316          1.0000000000
       948       316  TIP3  H2           13.8195528158       -5.8711515685       -6.5679711491  CLST         316          1.0000000000
       949       317  TIP3  OH2          -2.9879083868      -10.0039590613       -2.4553444563  CLST         317          1.0000000000
       950       317  TIP3  H1           -3.8611436504       -9.5357243172       -2.7299193823  CLST         317          1.0000000000
       951       317  TIP3  H2           -2.4697940505       -9.8200707081       -3.2419136663  CLST         317          1.0000000000
       952       318  TIP3  OH2          -1.3212944000        9.7515023150       -4.6094324535  CLST         318          1.0000000000
       953       318  TIP3  H1           -2.1866982991        9.4379523262       -5.0265916808  CLST         318          1.0000000000
       954       318  TIP3  H2           -1.1153593948       10.6210059480       -5.0488282419  CLST         318          1.0000000000
       955       319  TIP3  OH2           6.1384084977       -8.0351154566       -2.1464744757  CLST         319          1.0000000000
       956       319  TIP3  H1            6.9234868156       -8.1141728660       -2.7192908243  CLST         319          1.0000000000
       957       319  TIP3  H2            6.6093731833       -8.3287980259       -1.3217484343  CLST         319          1.0000000000
       958       320  TIP3  OH2           5.8441358028       12.7908257340      -12.3774882361  CLST         320          1.0000000000
       959       320  TIP3  H1            6.0485901605       12.7570159100      -13.3482727466  CLST         320          1.0000000000
       960       320  TIP3  H2            6.3171048930       12.0275318658      -11.9921036508  CLST         320          1.0000000000
       961       321  TIP3  OH2           1.3398122625      -11.4600380513        9.3069928932  CLST         321          1.0000000000
       962       321  TIP3  H1            1.6836281300      -12.0891918012        9.9183789710  CLST         321          1.0000000000
       963       321  TIP3  H2            1.6533176885      -10.6428986440        9.8441715932  CLST         321          1.0000000000
       964       322  TIP3  OH2           0.8534455464        5.6543288709       10.0274810373  CLST         322          1.0000000000
       965       322  TIP3  H1            0.7605725953        6.3197286980        9.2867371428  CLST         322          1.0000000000
       966       322  TIP3  H2           -0.0490651426        5.3795452561       10.1723736084  CLST         322          1.0000000000
       967       323  TIP3  OH2           8.0512714261        3.3247606206       12.7799722028  CLST         323          1.0000000000
       968       323  TIP3  H1            7.0474482610        3.3370971031       12.7589413269  CLST         323          1.0000000000
       969       323  TIP3  H2            8.2109292742        3.1547560076       11.8042849769  CLST         323          1.0000000000
       970       324  TIP3  OH2           6.5590460672        3.1814271643       -1.7505609413  CLST         324          1.0000000000
       971       324  TIP3  H1            6.0416603872        4.0593874533       -1.6511096793  CLST         324          1.0000000000
       972       324  TIP3  H2            6.8777041951        3.1855989999       -2.6293265946  CLST         324          1.0000000000
       973       325  TIP3  OH2         -12.6518979461       -8.5483571492       11.8906969917  CLST         325          1.0000000000
       974       325  TIP3  H1          -12.9854060622       -7.6289522814       11.9591201458  CLST         325          1.0000000000
       975       325  TIP3  H2          -11.8152296730       -8.4117730624       11.4627481594  CLST         325          1.0000000000
       976       326  TIP3  OH2         -12.3121963508        9.3407810509       -5.1302484975  CLST         326          1.0000000000
       977       326  TIP3  H1          -12.1585273620       10.2906310105       -5.0879851999  CLST         326          1.0000000000
       978       326  TIP3  H2          -11.5996439795        9.0740393384       -5.7561624798  CLST         326          1.0000000000
       979       327  TIP3  OH2          12.5400127195       -5.8805365444       10.0876210624  CLST         327          1.0000000000
       980       327  TIP3  H1           12.1730903846       -6.1158148822        9.2276487263  CLST         327          1.0000000000
       981       327  TIP3  H2           13.1795898244       -5.2097916391        9.7764990005  CLST         327          1.0000000000
       982       328  TIP3  OH2         -12.3238452781       -8.0868130136      -12.6717379530  CLST         328          1.0000000000
       983       328  TIP3  H1          -11.5346293171       -8.0722932581      -12.1260266978  CLST         328          1.0000000000
       984       328  TIP3  H2          -12.2649915909       -9.0528529182      -12.8929089724  CLST         328          1.0000000000
       985       329  TIP3  OH2           6.6858651732       -4.4087704053       -1.6014867502  CLST         329          1.0000000000
       986       329  TIP3  H1            5.9706309332       -3.9818551361       -1.0667075337  CLST         329          1.0000000000
       987       329  TIP3  H2            6.3855970077       -4.3729877000       -2.4767772623  CLST         329          1.0000000000
       988       330  TIP3  OH2          12.9388137435        5.7500488038      -14.4979321361  CLST         330          1.0000000000
       989       330  TIP3  H1           13.5813333822        5.4079741956      -15.1215866195  CLST         330          1.0000000000
       990       330  TIP3  H2           13.4410472019        6.0717319554      -13.6985399512  CLST         330          1.0000000000
       991       331  TIP3  OH2          -4.5201045209       -0.0588279497        6.1320099248  CLST         331          1.0000000000
       992       331  TIP3  H1           -4.1929379592        0.6875412877        5.6254611029  CLST         331          1.0000000000
       993       331  TIP3  H2           -5.4491261340        0.0442259479        6.0541537860  CLST         331          1.0000000000
       994       332  TIP3  OH2          -8.8541532203        9.1221496610       -2.0879908603  CLST         332          1.0000000000
       995       332  TIP3  H1           -9.4909124550        9.8866975037       -2.2380352316  CLST         332          1.0000000000
       996       332  TIP3  H2           -8.4237776679        9.3308074422       -1.2471967143  CLST         332          1.0000000000
       997       333  TIP3  OH2          -7.0320649978       -8.7332660972       -6.8672451569  CLST         333          1.0000000000
       998       333  TIP3  H1           -7.3703031477       -9.1594229434       -7.6936525927  CLST         333          1.0000000000
       999       333  TIP3  H2           -7.7059186258       -8.0394551286       -6.7249271164  CLST         333          1.0000000000
      1000       334  TIP3  OH2         -10.5909103468        8.2938726580       -9.3164211387  CLST         334          1.0000000000
      1001       334  TIP3  H1          -10.3398105052        9.0565941095       -9.8268579078  CLST         334          1.0000000000
      1002       334  TIP3  H2          -10.8511987664        8.7010878070       -8.5065324763  CLST         334          1.0000000000
      1003       335  TIP3  OH2           1.4206373095       -0.0621862876       -1.2938951524  CLST         335          1.0000000000
      1004       335  TIP3  H1            0.9795761711       -0.8349794992       -1.0314069908  CLST         335          1.0000000000
      1005       335  TIP3  H2            0.9237300073        0.0622417574       -2.1604456509  CLST         335          1.0000000000
      1006       336  TIP3  OH2          11.8358471176        5.6481688603        1.5525703370  CLST         336          1.0000000000
      1007       336  TIP3  H1           11.0844902019        4.9819892531        1.6395043491  CLST         336          1.0000000000
      1008       336  TIP3  H2           11.2659957239        6.4013150230        1.2779172991  CLST         336          1.0000000000
      1009       337  TIP3  OH2           2.2085012925      -14.8348379841        5.1616952889  CLST         337          1.0000000000
      1010       337  TIP3  H1            2.2657637189      -14.2237127906        5.9510874107  CLST         337          1.0000000000
      1011       337  TIP3  H2            1.7240263671      -14.3577865032        4.4309447902  CLST         337          1.0000000000
      1012       338  TIP3  OH2          -4.4273833187        2.7239414645      -11.5523209371  CLST         338          1.0000000000
      1013       338  TIP3  H1           -5.0857207711        2.3380319181      -12.1183474826  CLST         338          1.0000000000
      1014       338  TIP3  H2           -3.9260068248        1.8461106590      -11.4669473106  CLST         338          1.0000000000
      1015       339  TIP3  OH2           5.1273230240        2.2726605576       -7.9288267576  CLST         339          1.0000000000
      1016       339  TIP3  H1            4.1533382904        2.2401434176       -7.8160703123  CLST         339          1.0000000000
      1017       339  TIP3  H2            5.1177297388        2.8873749484       -8.6883990062  CLST         339          1.0000000000
      1018       340  TIP3  OH2         -10.7466468067       12.0776614723       -8.7405900001  CLST         340          1.0000000000
      1019       340  TIP3  H1          -11.6198722755       11.8855045863       -9.0995568501  CLST         340          1.0000000000
      1020       340  TIP3  H2          -10.8903500164       13.0067748612       -8.4175085646  CLST         340          1.0000000000
      1021       341  TIP3  OH2          -1.9543851095       14.0694498568       -0.7243114778  CLST         341          1.0000000000
      1022       341  TIP3  H1           -1.6363655000       13.3655596720       -1.2831348039  CLST         341          1.0000000000
      1023       341  TIP3  H2           -2.2973655515       14.6968592364       -1.3418823303  CLST         341          1.0000000000
      1024       342  TIP3  OH2         -11.7117037202        3.5526984411        9.7617258088  CLST         342          1.0000000000
      1025       342  TIP3  H1          -12.2867253145        2.7505004800        9.9928308233  CLST         342          1.0000000000
      1026       342  TIP3  H2          -11.2337974208        3.7861177219       10.6310622984  CLST         342          1.0000000000
      1027       343  TIP3  OH2          -0.7084250727       -1.4731533270       15.5094819897  CLST         343          1.0000000000
      1028       343  TIP3  H1           -1.1643981181       -0.6464289936       15.6651378873  CLST         343          1.0000000000
      1029       343  TIP3  H2           -0.5221717648       -1.4274141652       14.5439287670  CLST         343          1.0000000000
      1030       344  TIP3  OH2           8.9864059152        4.0236905295        4.1787154056  CLST         344          1.0000000000
      1031       344  TIP3  H1            9.0481707076        4.9083780280        4.5198060364  CLST         344          1.0000000000
      1032       344  TIP3  H2            8.1589949764        3.7194638332        4.5187882485  CLST         344          1.0000000000
      1033       345  TIP3  OH2           0.2423843251        9.7904511988       -0.2912185719  CLST         345          1.0000000000
      1034       345  TIP3  H1            0.8558996570        9.2289230621        0.1425120431  CLST         345          1.0000000000
      1035       345  TIP3  H2           -0.5389515245        9.2148112779       -0.2821449657  CLST         345          1.0000000000
      1036       346  TIP3  OH2          -4.7684441511      -14.5841852609        6.2041747186  CLST         346          1.0000000000
      1037       346  TIP3  H1           -5.3238208917      -13.8120393648        5.9136297054  CLST         346          1.0000000000
      1038       346  TIP3  H2           -4.3313557546      -14.2803931098        6.9973697994  CLST         346          1.0000000000
      1039       347  TIP3  OH2         -13.9445745314      -11.5878612510       -2.0235262534  CLST         347          1.0000000000
      1040       347  TIP3  H1          -13.9145693081      -10.9498182158       -2.7740868061  CLST         347          1.0000000000
      1041       347  TIP3  H2          -13.5352708918      -11.1207744123       -1.2268133599  CLST         347          1.0000000000
      1042       348  TIP3  OH2           4.3104378588        7.5454388254       -7.4427043355  CLST         348          1.0000000000
      1043       348  TIP3  H1            5.1496283896        7.0445062732       -7.3658344273  CLST         348          1.0000000000
      1044       348  TIP3  H2            4.1852454902        7.8751110249       -6.5398529883  CLST         348          1.0000000000
      1045       349  TIP3  OH2           8.2105453627       10.0564225913        2.6165050585  CLST         349          1.0000000000
      1046       349  TIP3  H1            8.4254279186       10.5142502716        1.7838045071  CLST         349          1.0000000000
      1047       349  TIP3  H2            7.2859154397        9.7162109222        2.4024067851  CLST         349          1.0000000000
      1048       350  TIP3  OH2          -8.8817436428        1.0157326192      -14.6501470826  CLST         350          1.0000000000
      1049       350  TIP3  H1           -8.8562590139        0.0508924305      -14.5849776164  CLST         350          1.0000000000
      1050       350  TIP3  H2           -9.8545787162        1.1420740154      -14.6558089593  CLST         350          1.0000000000
      1051       351  TIP3  OH2          10.3769884891        3.1661532414        6.2422918992  CLST         351          1.0000000000
      1052       351  TIP3  H1           11.0834630499        3.6298201104        6.6057936341  CLST         351          1.0000000000
      1053       351  TIP3  H2           10.1566661003        3.6909792258        5.4545772152  CLST         351          1.0000000000
      1054       352  TIP3  OH2           5.4891068399       -0.5600893460       -8.1330093249  CLST         352          1.0000000000
      1055       352  TIP3  H1            6.1316468114       -0.8149380231       -7.4776929749  CLST         352          1.0000000000
      1056       352  TIP3  H2            5.4338695748        0.3661808223       -7.9268422613  CLST         352          1.0000000000
      1057       353  TIP3  OH2          -1.5957252787        9.6094951055      -12.7396077651  CLST         353          1.0000000000
      1058       353  TIP3  H1           -0.8101143816        9.3636146134      -13.2703544207  CLST         353          1.0000000000
      1059       353  TIP3  H2           -1.9430577215        8.7636496815      -12.5043008776  CLST         353          1.0000000000
      1060       354  TIP3  OH2         -11.7924497111      -11.0129849651      -14.2454676884  CLST         354          1.0000000000
      1061       354  TIP3  H1          -12.0653781163      -11.0467077607      -15.1293788780  CLST         354          1.0000000000
      1062       354  TIP3  H2          -10.8835851807      -11.1770636289      -14.4598190893  CLST         354          1.0000000000
      1063       355  TIP3  OH2           1.7544502638      -13.6552184716       -9.8423572843  CLST         355          1.0000000000
      1064       355  TIP3  H1            1.8712262907      -13.3189495331       -8.9251447787  CLST         355          1.0000000000
      1065       355  TIP3  H2            1.2277414068      -12.8917779558      -10.1890207086  CLST         355          1.0000000000
      1066       356  TIP3  OH2         -12.9841561710       -5.2082931567       -2.9903553426  CLST         356          1.0000000000
      1067       356  TIP3  H1          -13.1882325369       -6.1254477263       -3.1848900987  CLST         356          1.0000000000
      1068       356  TIP3  H2          -13.1965828264       -4.7702752355       -3.8073677651  CLST         356          1.0000000000
      1069       357  TIP3  OH2          -6.7214267557       -9.5272355542        4.9471886410  CLST         357          1.0000000000
      1070       357  TIP3  H1           -5.9063183932       -9.6725555483        4.3960425659  CLST         357          1.0000000000
      1071       357  TIP3  H2           -6.6809056433       -8.5792429025        4.8082049710  CLST         357          1.0000000000
      1072       358  TIP3  OH2          -2.4118795478       -7.5957675348        4.1621935132  CLST         358          1.0000000000
      1073       358  TIP3  H1           -1.4701469974       -7.7187741320        4.0193656532  CLST         358          1.0000000000
      1074       358  TIP3  H2           -2.4653652382       -7.3399431257        5.1160500214  CLST         358          1.0000000000
      1075       359  TIP3  OH2          10.3323880206        9.9371034016       -1.8143939422  CLST         359          1.0000000000
      1076       359  TIP3  H1           10.0301516649       10.1746019178       -0.9207707354  CLST         359          1.0000000000
      1077       359  TIP3  H2           11.0382751696       10.6250018213       -1.9681850990  CLST         359          1.0000000000
      1078       360  TIP3  OH2           7.4529949623       12.7979643383       12.9943196232  CLST         360          1.0000000000
      1079       360  TIP3  H1            8.2355803494       13.3998350199       12.9439671609  CLST         360          1.0000000000
      1080       360  TIP3  H2            7.2435891208       12.6634033203       12.0655865698  CLST         360          1.0000000000
      1081       361  TIP3  OH2          -6.0378820314      -10.9574272224       10.5501082384  CLST         361          1.0000000000
      1082       361  TIP3  H1           -6.1719294951      -10.6602913560        9.6306417584  CLST         361          1.0000000000
      1083       361  TIP3  H2           -6.2429431746      -11.9070665867       10.4024468000  CLST         361          1.0000000000
      1084       362  TIP3  OH2           4.4620505179       -3.4864817459       10.4987022273  CLST         362          1.0000000000
      1085       362  TIP3  H1            4.3429961754       -3.0500193463        9.6567589364  CLST         362          1.0000000000
      1086       362  TIP3  H2            5.4132086962       -3.6751431505       10.5685003775  CLST         362          1.0000000000
      1087       363  TIP3  OH2           4.8486620251       -4.7091698543       14.0136963156  CLST         363          1.0000000000
      1088       363  TIP3  H1            4.5955624124       -4.4820056954       14.9650402733  CLST         363          1.0000000000
      1089       363  TIP3  H2            5.8228110980       -4.4317204647       14.0072740075  CLST         363          1.0000000000
      1090       364  TIP3  OH2          -0.9802604998        4.9508218244       13.4813864756  CLST         364          1.0000000000
      1091       364  TIP3  H1           -0.0938201583        4.7857571995       13.9175809851  CLST         364          1.0000000000
      1092       364  TIP3  H2           -0.9983931577        5.9088600417       13.4568772165  CLST         364          1.0000000000
      1093       365  TIP3  OH2          -7.7386861701        4.9127660263      -11.6334325071  CLST         365          1.0000000000
      1094       365  TIP3  H1           -8.2637686909        5.1472210884      -10.8355161524  CLST         365          1.0000000000
      1095       365  TIP3  H2           -6.8339921440        5.1320351417      -11.3664811602  CLST         365          1.0000000000
      1096       366  TIP3  OH2         -10.0344945924       -2.7850517954        0.6530001171  CLST         366          1.0000000000
      1097       366  TIP3  H1          -10.7891479684       -2.7532262520        1.2723398853  CLST         366          1.0000000000
      1098       366  TIP3  H2          -10.5099554872       -2.8762716770       -0.2016964674  CLST         366          1.0000000000
      1099       367  TIP3  OH2          13.6957161975       10.5449986765       11.7327881461  CLST         367          1.0000000000
      1100       367  TIP3  H1           13.0399178598       11.2575360170       11.5098622280  CLST         367          1.0000000000
      1101       367  TIP3  H2           13.2856668871       10.2416155570       12.5576929022  CLST         367          1.0000000000
      1102       368  TIP3  OH2          -9.8475148552       -1.2719104727       13.1613301707  CLST         368          1.0000000000
      1103       368  TIP3  H1          -10.5277633591       -0.9392267411       12.5075026983  CLST         368          1.0000000000
      1104       368  TIP3  H2           -9.6081501309       -2.1867436102       13.0031408709  CLST         368          1.0000000000
      1105       369  TIP3  OH2           7.7473704970        9.6253684520       -2.5700062708  CLST         369          1.0000000000
      1106       369  TIP3  H1            8.7402536658        9.6891944733       -2.4934295273  CLST         369          1.0000000000
      1107       369  TIP3  H2            7.7548133718        8.6768223785       -2.4356157266  CLST         369          1.0000000000
      1108       370  TIP3  OH2          -6.9112358753      -12.9608578188       -0.9523477015  CLST         370          1.0000000000
      1109       370  TIP3  H1           -6.0235311797      -13.3269772191       -0.7638669610  CLST         370          1.0000000000
      1110       370  TIP3  H2           -7.2991612303      -13.0779201035       -0.0115632881  CLST         370          1.0000000000
      1111       371  TIP3  OH2           8.7632457236       12.2499657025        9.8295092201  CLST         371          1.0000000000
      1112       371  TIP3  H1            8.8899200797       11.5949273128        9.1457023439  CLST         371          1.0000000000
      1113       371  TIP3  H2            7.7916671331       12.3436262942        9.8952706791  CLST         371          1.0000000000
      1114       372  TIP3  OH2          -1.1848912721       11.6340196269       -1.9515092978  CLST         372          1.0000000000
      1115       372  TIP3  H1           -1.8692225642       10.9987639545       -2.2732316765  CLST         372          1.0000000000
      1116       372  TIP3  H2           -0.8437718519       11.0628426042       -1.2013737920  CLST         372          1.0000000000
      1117       373  TIP3  OH2           8.7932076420       -5.6018969182        8.5008204995  CLST         373          1.0000000000
      1118       373  TIP3  H1            8.9139164587       -6.5539669530        8.3127246401  CLST         373          1.0000000000
      1119       373  TIP3  H2            9.6881416486       -5.3693234202        8.2056820483  CLST         373          1.0000000000
      1120       374  TIP3  OH2          11.1881228992       -9.7539939648       -4.4268025045  CLST         374          1.0000000000
      1121       374  TIP3  H1           11.5200742936      -10.0509085532       -3.5981607911  CLST         374          1.0000000000
      1122       374  TIP3  H2           10.7747739646      -10.6092867359       -4.6087123194  CLST         374          1.0000000000
      1123       375  TIP3  OH2           1.4465001723       13.5493875509       -2.8413250506  CLST         375          1.0000000000
      1124       375  TIP3  H1            1.3896672260       14.0330081751       -2.0024731914  CLST         375          1.0000000000
      1125       375  TIP3  H2            0.6358095542       13.7636883378       -3.2483935128  CLST         375          1.0000000000
      1126       376  TIP3  OH2          10.7922214907        4.5135624684       -8.7252250469  CLST         376          1.0000000000
      1127       376  TIP3  H1            9.8489728363        4.5384791650       -8.8264004232  CLST         376          1.0000000000
      1128       376  TIP3  H2           10.9472319122        4.8958180709       -9.5885933245  CLST         376          1.0000000000
      1129       377  TIP3  OH2           7.9349005552       11.0938292725      -11.7201781491  CLST         377          1.0000000000
      1130       377  TIP3  H1            7.9031583019       10.6838743784      -12.5863996816  CLST         377          1.0000000000
      1131       377  TIP3  H2            8.8866456164       11.2458250741      -11.6820725210  CLST         377          1.0000000000
      1132       378  TIP3  OH2           6.4900371428        9.4018036766        7.5774770081  CLST         378          1.0000000000
      1133       378  TIP3  H1            7.0404794058        8.6088417862        7.6754526259  CLST         378          1.0000000000
      1134       378  TIP3  H2            6.0765340034        9.4547303010        8.4143161267  CLST         378          1.0000000000
      1135       379  TIP3  OH2          -6.7425632053      -10.5832416210       -2.4590070474  CLST         379          1.0000000000
      1136       379  TIP3  H1           -6.8297728197      -10.5979273571       -3.4487137020  CLST         379          1.0000000000
      1137       379  TIP3  H2           -6.9792254818      -11.5036677977       -2.2773434238  CLST         379          1.0000000000
      1138       380  TIP3  OH2           7.4471582680       11.4745264239        4.7844799340  CLST         380          1.0000000000
      1139       380  TIP3  H1            6.6713651094       11.9808325986        4.5267767110  CLST         380          1.0000000000
      1140       380  TIP3  H2            7.7258670413       10.9890324232        3.9706814093  CLST         380          1.0000000000
      1141       381  TIP3  OH2          -7.4649508571       -6.8878295221      -10.2184035678  CLST         381          1.0000000000
      1142       381  TIP3  H1           -7.8744049538       -6.5072815834      -10.9765669915  CLST         381          1.0000000000
      1143       381  TIP3  H2           -6.5956981255       -6.4739135603      -10.3795837119  CLST         381          1.0000000000
      1144       382  TIP3  OH2          -3.5881223093        2.3373537629       -1.9884271597  CLST         382          1.0000000000
      1145       382  TIP3  H1           -4.1414716797        2.7686570282       -2.6456969772  CLST         382          1.0000000000
      1146       382  TIP3  H2           -4.0376983964        1.4874213501       -2.0622200848  CLST         382          1.0000000000
      1147       383  TIP3  OH2          -7.5269538108       -9.3894071630        8.6115686933  CLST         383          1.0000000000
      1148       383  TIP3  H1           -6.6715528896       -8.9466144123        8.8942304799  CLST         383          1.0000000000
      1149       383  TIP3  H2           -7.0183996966      -10.1313984497        8.1040444502  CLST         383          1.0000000000
      1150       384  TIP3  OH2         -11.8318345014       -5.3788604460       13.3712545803  CLST         384          1.0000000000
      1151       384  TIP3  H1          -11.7359385540       -6.3128709902       13.7088182255  CLST         384          1.0000000000
      1152       384  TIP3  H2          -12.3124672004       -5.5872242763       12.5119837779  CLST         384          1.0000000000
      1153       385  TIP3  OH2           7.8360184235        0.5581315758        9.0860194267  CLST         385          1.0000000000
      1154       385  TIP3  H1            8.0289738381        1.4990571409        9.2155571854  CLST         385          1.0000000000
      1155       385  TIP3  H2            8.4509782261        0.1256084694        9.7342741285  CLST         385          1.0000000000
      1156       386  TIP3  OH2         -12.5006164466       -8.8207298574        8.4864757669  CLST         386          1.0000000000
      1157       386  TIP3  H1          -11.9073673776       -8.0108047821        8.5357070732  CLST         386          1.0000000000
      1158       386  TIP3  H2          -12.8733474055       -8.8314667099        9.3584485142  CLST         386          1.0000000000
      1159       387  TIP3  OH2          -1.2335213368      -12.7710123147       -1.0375006373  CLST         387          1.0000000000
      1160       387  TIP3  H1           -1.4375556411      -12.8861135840       -0.0801041325  CLST         387          1.0000000000
      1161       387  TIP3  H2           -1.2754970922      -11.8933822442       -1.3712846127  CLST         387          1.0000000000
      1162       388  TIP3  OH2           3.5133476126        7.3078678739        7.0074432325  CLST         388          1.0000000000
      1163       388  TIP3  H1            2.9704063765        7.5936438416        6.2105963769  CLST         388          1.0000000000
      1164       388  TIP3  H2            4.3466250489        7.5136376159        6.6926926867  CLST         388          1.0000000000
      1165       389  TIP3  OH2          -3.7796228392      -11.0134144724       -0.1458396674  CLST         389          1.0000000000
      1166       389  TIP3  H1           -4.5272369100      -10.4037897327       -0.2867918985  CLST         389          1.0000000000
      1167       389  TIP3  H2           -3.4261732706      -11.0089897393       -0.9819551206  CLST         389          1.0000000000
      1168       390  TIP3  OH2          -0.9783626420        4.9367890770        4.6990927552  CLST         390          1.0000000000
      1169       390  TIP3  H1           -0.3811172295        4.7723802535        5.4619934900  CLST         390          1.0000000000
      1170       390  TIP3  H2           -0.4470446557        4.4028450927        4.0453120150  CLST         390          1.0000000000
      1171       391  TIP3  OH2          -5.9997235842       -4.8795282934        1.5136101480  CLST         391          1.0000000000
      1172       391  TIP3  H1           -5.9097455879       -4.0178025724        1.1596985498  CLST         391          1.0000000000
      1173       391  TIP3  H2           -6.8914344541       -4.8542993952        2.0011066402  CLST         391          1.0000000000
      1174       392  TIP3  OH2           4.9333626082        9.1294131491       -5.2719181021  CLST         392          1.0000000000
      1175       392  TIP3  H1            5.8935719308        8.7690718719       -5.2219936371  CLST         392          1.0000000000
      1176       392  TIP3  H2            4.7731066708        9.4744054975       -4.3885103357  CLST         392          1.0000000000
      1177       393  TIP3  OH2          13.2571588420       11.0091613909       -7.8348744826  CLST         393          1.0000000000
      1178       393  TIP3  H1           13.2304350985       10.2910429050       -8.5267938939  CLST         393          1.0000000000
      1179       393  TIP3  H2           12.6507632425       10.7694470507       -7.0336675749  CLST         393          1.0000000000
      1180       394  TIP3  OH2           1.1421315247        6.7819724053        5.2671785380  CLST         394          1.0000000000
      1181       394  TIP3  H1            0.7397925564        7.0953116861        4.4536388609  CLST         394          1.0000000000
      1182       394  TIP3  H2            1.4457006228        5.8836230336        4.9709213295  CLST         394          1.0000000000
      1183       395  TIP3  OH2          -6.0741528636        7.3939027110        0.1353729379  CLST         395          1.0000000000
      1184       395  TIP3  H1           -6.1145685824        6.5752333050        0.6889835893  CLST         395          1.0000000000
      1185       395  TIP3  H2           -5.1721508365        7.6950072938        0.3971364052  CLST         395          1.0000000000
      1186       396  TIP3  OH2          -3.6199896039        9.5914772800       -2.4220798043  CLST         396          1.0000000000
      1187       396  TIP3  H1           -3.6990575427        9.0614075787       -3.2014226832  CLST         396          1.0000000000
      1188       396  TIP3  H2           -4.3767637843       10.1341905656       -2.6790844240  CLST         396          1.0000000000
      1189       397  TIP3  OH2           2.6014003690      -12.7665104922      -13.5005082989  CLST         397          1.0000000000
      1190       397  TIP3  H1            1.9971553299      -12.0410813794      -13.4024617797  CLST         397          1.0000000000
      1191       397  TIP3  H2            3.0768896359      -12.6778945364      -12.6572164039  CLST         397          1.0000000000
      1192       398  TIP3  OH2           8.8424731324       -4.4120770199        0.7607101915  CLST         398          1.0000000000
      1193       398  TIP3  H1            8.5263037122       -5.2896640447        0.4438025262  CLST         398          1.0000000000
      1194       398  TIP3  H2            8.0819057999       -3.8023101895        0.6556619661  CLST         398          1.0000000000
      1195       399  TIP3  OH2         -14.4974676630       -3.0251358734       13.4638821060  CLST         399          1.0000000000
      1196       399  TIP3  H1          -14.8994302815       -3.7755547168       13.9052331382  CLST         399          1.0000000000
      1197       399  TIP3  H2          -13.5802140571       -3.2342276724       13.6068335654  CLST         399          1.0000000000
      1198       400  TIP3  OH2         -13.2989157044        8.6384122393        4.4567695878  CLST         400          1.0000000000
      1199       400  TIP3  H1          -13.5691009590        9.2122852544        5.2146029458  CLST         400          1.0000000000
      1200       400  TIP3  H2          -13.0160805103        7.9048670212        5.0098975563  CLST         400          1.0000000000
      1201       401  TIP3  OH2           1.4280244909        5.3945479485      -13.8024474243  CLST         401          1.0000000000
      1202       401  TIP3  H1            1.6629838464        5.3997785565      -14.7168521174  CLST         401          1.0000000000
      1203       401  TIP3  H2            1.0300180854        6.2907808442      -13.6673263393  CLST         401          1.0000000000
      1204       402  TIP3  OH2          14.4963818544       -5.2390542984       14.3940865794  CLST         402          1.0000000000
      1205       402  TIP3  H1           13.8696137354       -5.9939704414       14.4207345637  CLST         402          1.0000000000
      1206       402  TIP3  H2           14.6661879818       -5.0241718848       15.3011303447  CLST         402          1.0000000000
      1207       403  TIP3  OH2         -13.2069196814       12.1638393033       -2.8545475956  CLST         403          1.0000000000
      1208       403  TIP3  H1          -14.1352312397       11.8180289904       -3.2465140299  CLST         403          1.0000000000
      1209       403  TIP3  H2          -12.8081369725       12.3882367755       -3.7128696425  CLST         403          1.0000000000
      1210       404  TIP3  OH2           5.3611990288       -3.2881900670        0.3170600902  CLST         404          1.0000000000
      1211       404  TIP3  H1            4.5966475401       -2.8453822189        0.6304304084  CLST         404          1.0000000000
      1212       404  TIP3  H2            5.5777153591       -3.8429417853        1.0614077457  CLST         404          1.0000000000
      1213       405  TIP3  OH2           2.4551654844        8.4008550560       -3.1824509732  CLST         405          1.0000000000
      1214       405  TIP3  H1            2.3939191388        9.3811721540       -3.2981123473  CLST         405          1.0000000000
      1215       405  TIP3  H2            1.5131270650        8.1649567673       -3.1181016701  CLST         405          1.0000000000
      1216       406  TIP3  OH2          -8.9324987117       -2.5752743539       -7.4115492560  CLST         406          1.0000000000
      1217       406  TIP3  H1           -8.5975720524       -1.7695127053       -7.0218491137  CLST         406          1.0000000000
      1218       406  TIP3  H2           -9.9235480124       -2.3991834913       -7.2456419150  CLST         406          1.0000000000
      1219       407  TIP3  OH2           5.4301389914        5.6278041545        4.9650258735  CLST         407          1.0000000000
      1220       407  TIP3  H1            6.3405723621        5.4391013673        5.2121568465  CLST         407          1.0000000000
      1221       407  TIP3  H2            5.4767993946        5.6408438429        3.9724405242  CLST         407          1.0000000000
      1222       408  TIP3  OH2         -14.0644492547       -4.4509266261       -5.6088632158  CLST         408          1.0000000000
      1223       408  TIP3  H1          -14.2597598592       -3.4866082155       -5.7415924483  CLST         408          1.0000000000
      1224       408  TIP3  H2          -14.4013105480       -4.8607769650       -6.4736060026  CLST         408          1.0000000000
      1225       409  TIP3  OH2          -1.9482778227      -12.6081736013        1.4846434153  CLST         409          1.0000000000
      1226       409  TIP3  H1           -2.6954419868      -13.0943613773        1.9456239480  CLST         409          1.0000000000
      1227       409  TIP3  H2           -1.6032465812      -11.9906130838        2.1417758385  CLST         409          1.0000000000
      1228       410  TIP3  OH2          12.9963133954       -1.9287781554       11.0859588931  CLST         410          1.0000000000
      1229       410  TIP3  H1           12.4376262279       -1.0917384932       10.9031265708  CLST         410          1.0000000000
      1230       410  TIP3  H2           13.6013962873       -2.0345391710       10.2882113304  CLST         410          1.0000000000
      1231       411  TIP3  OH2           8.6184670712      -13.4005657222       -2.4125275780  CLST         411          1.0000000000
      1232       411  TIP3  H1            8.3927601152      -13.5228101916       -1.4949500766  CLST         411          1.0000000000
      1233       411  TIP3  H2            8.0494355100      -14.1272829573       -2.8152006566  CLST         411          1.0000000000
      1234       412  TIP3  OH2          13.2902260806       -4.3657245746       -7.5638176421  CLST         412          1.0000000000
      1235       412  TIP3  H1           12.7217031534       -4.2685531949       -8.3453094953  CLST         412          1.0000000000
      1236       412  TIP3  H2           12.7817252989       -3.8408672657       -6.8751670710  CLST         412          1.0000000000
      1237       413  TIP3  OH2           7.5391700936        8.4661814938       -5.2287675888  CLST         413          1.0000000000
      1238       413  TIP3  H1            7.7722085627        7.7791198439       -4.5778975890  CLST         413          1.0000000000
      1239       413  TIP3  H2            8.4005983194        8.7772517525       -5.5824439719  CLST         413          1.0000000000
      1240       414  TIP3  OH2          -9.2751549155       -5.1152164093      -12.0034755458  CLST         414          1.0000000000
      1241       414  TIP3  H1           -8.4869413275       -4.6061268930      -12.3210821309  CLST         414          1.0000000000
      1242       414  TIP3  H2           -9.5898757032       -4.5791769451      -11.1824316555  CLST         414          1.0000000000
      1243       415  TIP3  OH2         -14.5458553340        0.8936017174        5.5193670305  CLST         415          1.0000000000
      1244       415  TIP3  H1          -15.3484043648        1.3868741017        5.5676008430  CLST         415          1.0000000000
      1245       415  TIP3  H2          -14.1028832456        0.9290374520        6.3504641583  CLST         415          1.0000000000
      1246       416  TIP3  OH2          11.5116611971       12.5671768320       -2.1311684148  CLST         416          1.0000000000
      1247       416  TIP3  H1           12.0632735818       12.6345028016       -2.9618324435  CLST         416          1.0000000000
      1248       416  TIP3  H2           10.7022188790       13.1135652871       -2.3220725222  CLST         416          1.0000000000
      1249       417  TIP3  OH2          10.6414263482      -12.8108454212       -4.9686620931  CLST         417          1.0000000000
      1250       417  TIP3  H1           10.0983298630      -13.1333084799       -4.2032611907  CLST         417          1.0000000000
      1251       417  TIP3  H2           10.0005117640      -12.7891534793       -5.7179193239  CLST         417          1.0000000000
      1252       418  TIP3  OH2          -1.9716344149        5.4011983045        1.1382149407  CLST         418          1.0000000000
      1253       418  TIP3  H1           -2.4730215043        5.1959895017        0.2776046078  CLST         418          1.0000000000
      1254       418  TIP3  H2           -2.6587577860        5.3877611846        1.7618928610  CLST         418          1.0000000000
      1255       419  TIP3  OH2          -8.2062272241        9.3303648705        8.0955528676  CLST         419          1.0000000000
      1256       419  TIP3  H1           -8.3216874923       10.0887499220        7.4298269286  CLST         419          1.0000000000
      1257       419  TIP3  H2           -9.0964316860        9.3608335925        8.4571169594  CLST         419          1.0000000000
      1258       420  TIP3  OH2           3.3917509984        8.8845495111      -14.2784769389  CLST         420          1.0000000000
      1259       420  TIP3  H1            3.9887181282        9.1350516123      -13.5091163710  CLST         420          1.0000000000
      1260       420  TIP3  H2            3.3918572507        7.8781950055      -14.4103017112  CLST         420          1.0000000000
      1261       421  TIP3  OH2          -3.8371689929        7.0768619986       -3.6589932583  CLST         421          1.0000000000
      1262       421  TIP3  H1           -4.6822854402        6.6524844238       -3.9872993439  CLST         421          1.0000000000
      1263       421  TIP3  H2           -3.5106288817        6.4342338800       -3.0297987023  CLST         421          1.0000000000
      1264       422  TIP3  OH2           3.2285559713      -10.3788374912       -2.4018979422  CLST         422          1.0000000000
      1265       422  TIP3  H1            2.6025362520      -11.1240784120       -2.1470973916  CLST         422          1.0000000000
      1266       422  TIP3  H2            3.2616231801       -9.9729829175       -1.5057104965  CLST         422          1.0000000000
      1267       423  TIP3  OH2          -5.2036029057        5.2186181680        1.5820566138  CLST         423          1.0000000000
      1268       423  TIP3  H1           -4.7289221732        4.4445163295        1.2574897660  CLST         423          1.0000000000
      1269       423  TIP3  H2           -4.7917556465        5.6040638225        2.3783875888  CLST         423          1.0000000000
      1270       424  TIP3  OH2          -9.6599112634        8.5455897756        4.7108758523  CLST         424          1.0000000000
      1271       424  TIP3  H1           -9.2641576066        9.2437340873        4.1541072965  CLST         424          1.0000000000
      1272       424  TIP3  H2           -9.7362329686        7.7939583997        4.0906936618  CLST         424          1.0000000000
      1273       425  TIP3  OH2          -9.8455857507        2.5297345816       -9.0503353312  CLST         425          1.0000000000
      1274       425  TIP3  H1           -9.8101648364        1.5437073720       -8.9906265661  CLST         425          1.0000000000
      1275       425  TIP3  H2          -10.6633123050        2.8082854417       -8.5699011244  CLST         425          1.0000000000
      1276       426  TIP3  OH2          -1.0085532279       -8.9019983960       -4.1501980876  CLST         426          1.0000000000
      1277       426  TIP3  H1           -0.0700187202       -8.8852764638       -4.2858012743  CLST         426          1.0000000000
      1278       426  TIP3  H2           -1.2995794860       -9.3124844239       -4.9588542395  CLST         426          1.0000000000
      1279       427  TIP3  OH2          -9.7461126994        2.0351789188        5.2531412036  CLST         427          1.0000000000
      1280       427  TIP3  H1           -9.8041777788        2.9946345941        5.1290153528  CLST         427          1.0000000000
      1281       427  TIP3  H2          -10.4305303373        1.9649537298        5.9289476189  CLST         427          1.0000000000
      1282       428  TIP3  OH2          -6.5719719502       13.6840899939        6.7213369877  CLST         428          1.0000000000
      1283       428  TIP3  H1           -6.1865205755       14.5287768846        6.4924638542  CLST         428          1.0000000000
      1284       428  TIP3  H2           -6.5176832977       13.1932426030        5.9137700033  CLST         428          1.0000000000
      1285       429  TIP3  OH2           0.3457535885      -11.4325495620      -10.8307176467  CLST         429          1.0000000000
      1286       429  TIP3  H1           -0.5383782473      -11.8974555683      -11.0604973884  CLST         429          1.0000000000
      1287       429  TIP3  H2            0.0466251562      -11.0036743613      -10.0168542053  CLST         429          1.0000000000
      1288       430  TIP3  OH2           0.5312883403        9.9619541890       10.1275597967  CLST         430          1.0000000000
      1289       430  TIP3  H1           -0.2572172994       10.3925756112       10.4678531447  CLST         430          1.0000000000
      1290       430  TIP3  H2            0.9623189882        9.7162708540       10.9719708113  CLST         430          1.0000000000
      1291       431  TIP3  OH2          -6.2992491069       -3.5317409284       -4.0142662444  CLST         431          1.0000000000
      1292       431  TIP3  H1           -5.6249753952       -3.5190310139       -4.6642775576  CLST         431          1.0000000000
      1293       431  TIP3  H2           -7.0591958348       -3.8328640886       -4.5687904418  CLST         431          1.0000000000
      1294       432  TIP3  OH2          -5.2424373626        3.5753061430       -3.6193362974  CLST         432          1.0000000000
      1295       432  TIP3  H1           -5.9238379635        3.3624280769       -4.2406721829  CLST         432          1.0000000000
      1296       432  TIP3  H2           -5.6088288651        4.2215985513       -2.9718129910  CLST         432          1.0000000000
      1297       433  TIP3  OH2          -8.6752315341        3.2737081895       10.2071584684  CLST         433          1.0000000000
      1298       433  TIP3  H1           -8.3113386660        3.7109686071        9.3996809518  CLST         433          1.0000000000
      1299       433  TIP3  H2           -8.9262161875        4.0533321277       10.7395826997  CLST         433          1.0000000000
      1300       434  TIP3  OH2           1.0047137011       -4.0506319477        9.6743324655  CLST         434          1.0000000000
      1301       434  TIP3  H1            0.2468061069       -3.8074219722       10.1951488531  CLST         434          1.0000000000
      1302       434  TIP3  H2            1.4565922506       -3.2046482932        9.6309547163  CLST         434          1.0000000000
      1303       435  TIP3  OH2           7.5546366447       -8.3711394795        6.4593077502  CLST         435          1.0000000000
      1304       435  TIP3  H1            7.6724664785       -8.9775130191        5.6978072244  CLST         435          1.0000000000
      1305       435  TIP3  H2            6.9280906895       -7.7443608160        6.0759065179  CLST         435          1.0000000000
      1306       436  TIP3  OH2          -6.7239777638       14.1938359913       -2.2399435913  CLST         436          1.0000000000
      1307       436  TIP3  H1           -6.6983124978       15.1255822282       -2.5675798579  CLST         436          1.0000000000
      1308       436  TIP3  H2           -6.6580439957       14.3400941083       -1.2287521170  CLST         436          1.0000000000
      1309       437  TIP3  OH2          -0.9657602274      -13.2350331320        5.2134739880  CLST         437          1.0000000000
      1310       437  TIP3  H1           -1.7252586252      -12.6589991487        5.1472187883  CLST         437          1.0000000000
      1311       437  TIP3  H2           -0.2627058937      -12.6339844405        5.5709679059  CLST         437          1.0000000000
      1312       438  TIP3  OH2         -12.1029810682       -1.0989036469       -3.2515402789  CLST         438          1.0000000000
      1313       438  TIP3  H1          -11.9528546507       -1.8921980691       -2.7398832715  CLST         438          1.0000000000
      1314       438  TIP3  H2          -12.7140156391       -0.6511704934       -2.6032092897  CLST         438          1.0000000000
      1315       439  TIP3  OH2          -3.9745444819       -3.8431400414        3.6026542740  CLST         439          1.0000000000
      1316       439  TIP3  H1           -4.4395731150       -3.1496285370        4.0417867299  CLST         439          1.0000000000
      1317       439  TIP3  H2           -4.6126458246       -4.5677318714        3.6544040094  CLST         439          1.0000000000
      1318       440  TIP3  OH2         -10.0861548699      -11.6390487870       12.1895372641  CLST         440          1.0000000000
      1319       440  TIP3  H1          -10.0143367646      -11.1285330315       11.3186428349  CLST         440          1.0000000000
      1320       440  TIP3  H2           -9.1210170602      -11.8369531179       12.2339023116  CLST         440          1.0000000000
      1321       441  TIP3  OH2         -14.4405284293        3.6623429821        7.2664231451  CLST         441          1.0000000000
      1322       441  TIP3  H1          -14.3843599917        4.6359964111        7.4120367226  CLST         441          1.0000000000
      1323       441  TIP3  H2          -14.9635078650        3.5703444356        6.3980240571  CLST         441          1.0000000000
      1324       442  TIP3  OH2           9.3317913217        0.6805208125      -12.3145019450  CLST         442          1.0000000000
      1325       442  TIP3  H1            9.4392252169       -0.1902794909      -12.0048099656  CLST         442          1.0000000000
      1326       442  TIP3  H2           10.1616734826        0.9408056601      -12.5919926710  CLST         442          1.0000000000
      1327       443  TIP3  OH2           8.0753248774       -8.3295765234        3.6377287368  CLST         443          1.0000000000
      1328       443  TIP3  H1            8.8485321442       -7.7290890582        3.3838891287  CLST         443          1.0000000000
      1329       443  TIP3  H2            7.3190249531       -7.9772789104        3.1608733025  CLST         443          1.0000000000
      1330       444  TIP3  OH2          12.9756410850        8.2140622908       -0.2549711689  CLST         444          1.0000000000
      1331       444  TIP3  H1           13.2101885343        9.1648896286       -0.4356884901  CLST         444          1.0000000000
      1332       444  TIP3  H2           13.7883895061        7.7093709728       -0.1685774679  CLST         444          1.0000000000
      1333       445  TIP3  OH2          -8.8109982927       -9.6417268558       15.0138307666  CLST         445          1.0000000000
      1334       445  TIP3  H1           -8.6586972035       -8.8502982175       14.4357980315  CLST         445          1.0000000000
      1335       445  TIP3  H2           -8.1669443202       -9.6619792925       15.7357860772  CLST         445          1.0000000000
      1336       446  TIP3  OH2          12.8368627062       11.0248754403        0.0317177218  CLST         446          1.0000000000
      1337       446  TIP3  H1           12.5479230273       11.5460879685        0.7700611445  CLST         446          1.0000000000
      1338       446  TIP3  H2           12.6024980357       11.7526141845       -0.6366712977  CLST         446          1.0000000000
      1339       447  TIP3  OH2          -3.6891589749       13.3857281992        4.9994969466  CLST         447          1.0000000000
      1340       447  TIP3  H1           -4.1059045672       14.2414402495        5.3547966923  CLST         447          1.0000000000
      1341       447  TIP3  H2           -4.4848398996       12.9172973724        4.7544124706  CLST         447          1.0000000000
      1342       448  TIP3  OH2         -10.7692688952        9.2952480496      -13.1430075806  CLST         448          1.0000000000
      1343       448  TIP3  H1          -10.2234505002        9.7774642710      -12.4852488440  CLST         448          1.0000000000
      1344       448  TIP3  H2          -10.2119924355        8.4899857422      -13.4474861260  CLST         448          1.0000000000
      1345       449  TIP3  OH2           5.2782042023       -7.8814327918       -5.6201592207  CLST         449          1.0000000000
      1346       449  TIP3  H1            5.2316705442       -8.7929979088       -5.2751587910  CLST         449          1.0000000000
      1347       449  TIP3  H2            5.2025364843       -7.4566206932       -4.7847366219  CLST         449          1.0000000000
      1348       450  TIP3  OH2           4.8505868027       10.2164202711       11.7880728078  CLST         450          1.0000000000
      1349       450  TIP3  H1            5.6887845984        9.6985200303       11.8052089748  CLST         450          1.0000000000
      1350       450  TIP3  H2            4.5953358253        9.9547846209       10.8505166562  CLST         450          1.0000000000
      1351       451  TIP3  OH2         -12.6328557147       11.1716590128      -12.6950182080  CLST         451          1.0000000000
      1352       451  TIP3  H1          -12.7180162406       11.6407273494      -13.5435424426  CLST         451          1.0000000000
      1353       451  TIP3  H2          -11.8184939088       10.6825267140      -12.7868642491  CLST         451          1.0000000000
      1354       452  TIP3  OH2         -10.0266295153       14.7189280898        1.5421472918  CLST         452          1.0000000000
      1355       452  TIP3  H1          -10.7207953355       14.0862787238        1.7999849077  CLST         452          1.0000000000
      1356       452  TIP3  H2          -10.4751330053       15.3487909029        0.9989634279  CLST         452          1.0000000000
      1357       453  TIP3  OH2          -3.2302819729       -8.6438654527      -13.8282555026  CLST         453          1.0000000000
      1358       453  TIP3  H1           -4.0994798532       -8.8662174841      -13.3711064519  CLST         453          1.0000000000
      1359       453  TIP3  H2           -3.2235803096       -9.2412290530      -14.5637925783  CLST         453          1.0000000000
      1360       454  TIP3  OH2          13.5794489315      -13.3657202996       11.3033984510  CLST         454          1.0000000000
      1361       454  TIP3  H1           14.3644645680      -13.7623651495       11.7232263977  CLST         454          1.0000000000
      1362       454  TIP3  H2           13.1822914255      -12.8880793913       12.0274098088  CLST         454          1.0000000000
      1363       455  TIP3  OH2         -13.5308740562       -9.8662243683       -4.4271699926  CLST         455          1.0000000000
      1364       455  TIP3  H1          -13.6308022907       -8.8983270847       -4.5242267953  CLST         455          1.0000000000
      1365       455  TIP3  H2          -12.6837386179       -9.8531082615       -3.9447260300  CLST         455          1.0000000000
      1366       456  TIP3  OH2          -8.1001388598        7.2827276572        6.5203591536  CLST         456          1.0000000000
      1367       456  TIP3  H1           -7.9765217076        8.0722896566        7.0818766786  CLST         456          1.0000000000
      1368       456  TIP3  H2           -8.6063688266        7.6387841602        5.8041739071  CLST         456          1.0000000000
      1369       457  TIP3  OH2          -3.8267762977      -12.7632995669        8.4247023333  CLST         457          1.0000000000
      1370       457  TIP3  H1           -3.7873512556      -12.7908970591        9.4514617560  CLST         457          1.0000000000
      1371       457  TIP3  H2           -2.9636722745      -13.1625183403        8.1917015594  CLST         457          1.0000000000
      1372       458  TIP3  OH2          -2.4316793090       12.1563469430      -11.3970526302  CLST         458          1.0000000000
      1373       458  TIP3  H1           -3.3485126038       12.4326839669      -11.5581408583  CLST         458          1.0000000000
      1374       458  TIP3  H2           -2.4589963023       11.3085876984      -11.8750735097  CLST         458          1.0000000000
      1375       459  TIP3  OH2         -13.6769327850        7.2368908872       -3.8592003073  CLST         459          1.0000000000
      1376       459  TIP3  H1          -13.7005385889        7.8500286186       -3.1388985868  CLST         459          1.0000000000
      1377       459  TIP3  H2          -13.0389808523        7.7451716675       -4.4333430737  CLST         459          1.0000000000
      1378       460  TIP3  OH2           7.2341559973        9.6120906313      -13.9222840795  CLST         460          1.0000000000
      1379       460  TIP3  H1            6.5892151420        9.4458972730      -13.2011264325  CLST         460          1.0000000000
      1380       460  TIP3  H2            6.9442146347       10.4108304773      -14.4560892114  CLST         460          1.0000000000
      1381       461  TIP3  OH2           0.4904994406        7.7615713640      -12.7899773618  CLST         461          1.0000000000
      1382       461  TIP3  H1           -0.2144805763        7.1988251772      -12.4376098186  CLST         461          1.0000000000
      1383       461  TIP3  H2            0.6178530299        8.1552126407      -11.9145632722  CLST         461          1.0000000000
      1384       462  TIP3  OH2           4.3488478442        7.8530305080      -10.1363948828  CLST         462          1.0000000000
      1385       462  TIP3  H1            3.5851375194        7.4431582340      -10.4134481551  CLST         462          1.0000000000
      1386       462  TIP3  H2            4.4552911606        7.5684628760       -9.2146003225  CLST         462          1.0000000000
      1387       463  TIP3  OH2          -1.1862765100      -11.6623294265       -8.2441222161  CLST         463          1.0000000000
      1388       463  TIP3  H1           -1.9483100262      -12.0257272290       -8.6981351283  CLST         463          1.0000000000
      1389       463  TIP3  H2           -1.4186233645      -11.6762184578       -7.3709002503  CLST         463          1.0000000000
      1390       464  TIP3  OH2          -2.1486703303        2.7031866627       14.3663525975  CLST         464          1.0000000000
      1391       464  TIP3  H1           -2.9043190162        2.4776238658       13.9176945040  CLST         464          1.0000000000
      1392       464  TIP3  H2           -2.2824497760        3.6665260042       14.3098943555  CLST         464          1.0000000000
      1393       465  TIP3  OH2         -14.7256938372        6.2212177427        8.1151459663  CLST         465          1.0000000000
      1394       465  TIP3  H1          -15.1013474071        5.8166325737        8.8543241075  CLST         465          1.0000000000
      1395       465  TIP3  H2          -14.5156091236        7.1335036850        8.4304435761  CLST         465          1.0000000000
      1396       466  TIP3  OH2          -3.9675709534      -13.5756703213        3.0027335956  CLST         466          1.0000000000
      1397       466  TIP3  H1           -4.4665245995      -14.3368763520        3.2873778950  CLST         466          1.0000000000
      1398       466  TIP3  H2           -4.7579235178      -12.9717311989        2.7361103523  CLST         466          1.0000000000
      1399       467  TIP3  OH2           4.5460079639       14.7056552288        8.2033367098  CLST         467          1.0000000000
      1400       467  TIP3  H1            5.2038377415       14.1580987837        8.5878576919  CLST         467          1.0000000000
      1401       467  TIP3  H2            4.0427438965       15.0008179346        9.0077405840  CLST         467          1.0000000000
      1402       468  TIP3  OH2          -8.6164403553       -0.8047127686        1.9201982985  CLST         468          1.0000000000
      1403       468  TIP3  H1           -8.6605715987       -1.2750743244        2.7281596916  CLST         468          1.0000000000
      1404       468  TIP3  H2           -9.1410717652       -1.4155197395        1.3154074294  CLST         468          1.0000000000
      1405       469  TIP3  OH2           7.0487544341        0.9842668999       14.6196629222  CLST         469          1.0000000000
      1406       469  TIP3  H1            6.2936630234        0.5174665155       14.2961434127  CLST         469          1.0000000000
      1407       469  TIP3  H2            6.9316177045        1.8475515008       14.1939849181  CLST         469          1.0000000000
      1408       470  TIP3  OH2           1.0592360250       11.5834658995       -8.8077261186  CLST         470          1.0000000000
      1409       470  TIP3  H1            1.4257627135       12.4851240839       -8.8799849687  CLST         470          1.0000000000
      1410       470  TIP3  H2            1.7505276349       11.1534469997       -8.2770351844  CLST         470          1.0000000000
      1411       471  TIP3  OH2           5.3882819783        5.6767540776       -2.0866248641  CLST         471          1.0000000000
      1412       471  TIP3  H1            4.8817954972        5.6592749440       -2.9828450226  CLST         471          1.0000000000
      1413       471  TIP3  H2            4.6464014401        5.7477051462       -1.4794845667  CLST         471          1.0000000000
      1414       472  TIP3  OH2           5.4066477402      -12.3279700316       -6.9718097592  CLST         472          1.0000000000
      1415       472  TIP3  H1            5.0349608669      -13.0716648719       -7.5364212621  CLST         472          1.0000000000
      1416       472  TIP3  H2            5.6519306783      -12.7144076665       -6.1270006162  CLST         472          1.0000000000
      1417       473  TIP3  OH2          -4.0242311133        2.8329213339        1.1062062449  CLST         473          1.0000000000
      1418       473  TIP3  H1           -3.0671731494        2.6873755544        1.0157991885  CLST         473          1.0000000000
      1419       473  TIP3  H2           -4.3685461087        2.1017563087        0.5232766076  CLST         473          1.0000000000
      1420       474  TIP3  OH2           8.3837247611        4.4726123272        7.5486917585  CLST         474          1.0000000000
      1421       474  TIP3  H1            7.6130960616        3.9808618701        7.4195384252  CLST         474          1.0000000000
      1422       474  TIP3  H2            9.0741258053        4.0556264511        7.0576433226  CLST         474          1.0000000000
      1423       475  TIP3  OH2           6.1336542557       -3.8019199592       -7.9861661294  CLST         475          1.0000000000
      1424       475  TIP3  H1            5.7615906900       -3.3483164496       -8.7467611527  CLST         475          1.0000000000
      1425       475  TIP3  H2            6.7014496291       -4.3655394556       -8.4934104837  CLST         475          1.0000000000
      1426       476  TIP3  OH2           3.3987389713       10.1486754098       -8.0090463633  CLST         476          1.0000000000
      1427       476  TIP3  H1            3.8422363718        9.3183840737       -7.9404398138  CLST         476          1.0000000000
      1428       476  TIP3  H2            3.4001444264       10.4534853345       -7.0959903737  CLST         476          1.0000000000
      1429       477  TIP3  OH2          -7.1970673360       -3.4956712237       -9.7564510202  CLST         477          1.0000000000
      1430       477  TIP3  H1           -6.7587345100       -3.2671263510      -10.6030424059  CLST         477          1.0000000000
      1431       477  TIP3  H2           -6.5463251058       -3.3366629597       -9.0820217112  CLST         477          1.0000000000
      1432       478  TIP3  OH2           0.7878319762       -5.0338861871      -12.7038605576  CLST         478          1.0000000000
      1433       478  TIP3  H1            1.2766663811       -5.8065471863      -12.4843059878  CLST         478          1.0000000000
      1434       478  TIP3  H2            1.3253281249       -4.3091635596      -12.3685290568  CLST         478          1.0000000000
      1435       479  TIP3  OH2           0.2544055915       -1.6029257812       -7.3773739549  CLST         479          1.0000000000
      1436       479  TIP3  H1            0.4521798146       -1.2552129901       -6.4669830566  CLST         479          1.0000000000
      1437       479  TIP3  H2            1.0443794660       -1.2377672676       -7.8787475661  CLST         479          1.0000000000
      1438       480  TIP3  OH2           5.6962579743       -1.0153807618        8.9974890029  CLST         480          1.0000000000
      1439       480  TIP3  H1            6.0731034933       -1.8900913021        8.9942698904  CLST         480          1.0000000000
      1440       480  TIP3  H2            6.5840065519       -0.5551779865        8.9665276927  CLST         480          1.0000000000
      1441       481  TIP3  OH2          -6.8397755610        2.2353795920       -5.7344592639  CLST         481          1.0000000000
      1442       481  TIP3  H1           -7.3538470821        2.9719360897       -6.1684786281  CLST         481          1.0000000000
      1443       481  TIP3  H2           -6.0184400779        2.3493239998       -6.2242561774  CLST         481          1.0000000000
      1444       482  TIP3  OH2           3.5670384841       -7.9328693044        4.3897472371  CLST         482          1.0000000000
      1445       482  TIP3  H1            4.3148054340       -7.6181186172        4.9361382004  CLST         482          1.0000000000
      1446       482  TIP3  H2            3.1731338472       -7.0557756333        4.1126839821  CLST         482          1.0000000000
      1447       483  TIP3  OH2         -15.2548397874        0.3936395916       -8.2534123448  CLST         483          1.0000000000
      1448       483  TIP3  H1          -15.3466562646       -0.3641094571       -8.8943343086  CLST         483          1.0000000000
      1449       483  TIP3  H2          -14.3583985151        0.3199430585       -7.8440161411  CLST         483          1.0000000000
      1450       484  TIP3  OH2          14.7448299799       -2.4389518564       -8.7460303243  CLST         484          1.0000000000
      1451       484  TIP3  H1           14.2865381903       -3.1437500629       -8.2588836293  CLST         484          1.0000000000
      1452       484  TIP3  H2           14.0274712966       -2.0268993513       -9.2659038487  CLST         484          1.0000000000
      1453       485  TIP3  OH2          -3.5473687327        5.3875663958        3.7644953834  CLST         485          1.0000000000
      1454       485  TIP3  H1           -2.7232241293        5.2051663073        4.2284611301  CLST         485          1.0000000000
      1455       485  TIP3  H2           -4.0105302411        5.7986326855        4.5051629056  CLST         485          1.0000000000
      1456       486  TIP3  OH2          11.1336406393       13.0182793142       -9.1141409562  CLST         486          1.0000000000
      1457       486  TIP3  H1           11.3979757664       12.5840605825       -8.2819340551  CLST         486          1.0000000000
      1458       486  TIP3  H2           11.9795323032       12.8827878337       -9.5987877933  CLST         486          1.0000000000
      1459       487  TIP3  OH2           2.0953238168       -5.7929884845        3.4592251062  CLST         487          1.0000000000
      1460       487  TIP3  H1            2.6098820413       -5.1612232823        3.9641778053  CLST         487          1.0000000000
      1461       487  TIP3  H2            1.8057414057       -5.2730440542        2.6889676884  CLST         487          1.0000000000
      1462       488  TIP3  OH2         -11.6542008504       -0.7411065116       11.0063070200  CLST         488          1.0000000000
      1463       488  TIP3  H1          -12.0622436348        0.1152800108       10.9543403790  CLST         488          1.0000000000
      1464       488  TIP3  H2          -10.8985224346       -0.6527080914       10.3358477443  CLST         488          1.0000000000
      1465       489  TIP3  OH2          -8.4755437637        8.0883254314       -4.5314030794  CLST         489          1.0000000000
      1466       489  TIP3  H1           -8.5842317881        8.1911892676       -3.5955833105  CLST         489          1.0000000000
      1467       489  TIP3  H2           -7.5258028798        7.8150602082       -4.6122864084  CLST         489          1.0000000000
      1468       490  TIP3  OH2         -11.3746702304       11.0650892641        5.1489074146  CLST         490          1.0000000000
      1469       490  TIP3  H1          -11.3678147257       10.1126235100        5.3652328349  CLST         490          1.0000000000
      1470       490  TIP3  H2          -10.6069038371       11.1983687185        4.6344709255  CLST         490          1.0000000000
      1471       491  TIP3  OH2          -0.8715909612      -10.1728831740       10.9925722864  CLST         491          1.0000000000
      1472       491  TIP3  H1           -0.0428174150      -10.2165932216       10.4215708872  CLST         491          1.0000000000
      1473       491  TIP3  H2           -0.5137636950       -9.3912749218       11.5059559139  CLST         491          1.0000000000
      1474       492  TIP3  OH2          -2.1960555194       10.2658514726        2.7865483765  CLST         492          1.0000000000
      1475       492  TIP3  H1           -1.4307281676       10.8261933267        2.7886677861  CLST         492          1.0000000000
      1476       492  TIP3  H2           -2.7945425905       10.6480152105        2.1015055601  CLST         492          1.0000000000
      1477       493  TIP3  OH2          -6.1067653342       10.4167714996       -2.8655731960  CLST         493          1.0000000000
      1478       493  TIP3  H1           -6.7170188499       10.9909467357       -3.3536665608  CLST         493          1.0000000000
      1479       493  TIP3  H2           -6.7230397012       10.1703781815       -2.1821957155  CLST         493          1.0000000000
      1480       494  TIP3  OH2         -13.7866560252       10.7726168652       12.4234817957  CLST         494          1.0000000000
      1481       494  TIP3  H1          -14.6892038065       10.9514399833       12.2125608179  CLST         494          1.0000000000
      1482       494  TIP3  H2          -13.3560305868       11.6035331398       12.0799278655  CLST         494          1.0000000000
      1483       495  TIP3  OH2           3.1194666465      -12.9588312868       13.8563525470  CLST         495          1.0000000000
      1484       495  TIP3  H1            2.8682753244      -13.0312939544       14.7778273928  CLST         495          1.0000000000
      1485       495  TIP3  H2            3.6273179967      -12.1143916703       13.8770496364  CLST         495          1.0000000000
      1486       496  TIP3  OH2         -15.2568599278        6.4940707768        0.2080472595  CLST         496          1.0000000000
      1487       496  TIP3  H1          -14.5275001117        6.5599052902        0.8594261047  CLST         496          1.0000000000
      1488       496  TIP3  H2          -15.3252355894        5.5686366260        0.1905183984  CLST         496          1.0000000000
      1489       497  TIP3  OH2         -13.6331000125       -8.6772720964        3.3356592296  CLST         497          1.0000000000
      1490       497  TIP3  H1          -14.1714469917       -7.8716821854        3.1741399279  CLST         497          1.0000000000
      1491       497  TIP3  H2          -13.6786847554       -8.8167842239        4.2693501848  CLST         497          1.0000000000
      1492       498  TIP3  OH2           4.2745804682       14.2082251689      -10.7632998734  CLST         498          1.0000000000
      1493       498  TIP3  H1            4.5700041167       14.1946619851      -11.7107090388  CLST         498          1.0000000000
      1494       498  TIP3  H2            4.9957181846       13.6288321566      -10.4141845215  CLST         498          1.0000000000
      1495       499  TIP3  OH2           1.4594350472       10.9003171962       -2.8650472383  CLST         499          1.0000000000
      1496       499  TIP3  H1            0.5435441676       11.1023438977       -2.7453853497  CLST         499          1.0000000000
      1497       499  TIP3  H2            1.9093602014       11.6097827638       -2.4122665235  CLST         499          1.0000000000
      1498       500  TIP3  OH2          -6.2608520100       -2.4514269070        4.2906518699  CLST         500          1.0000000000
      1499       500  TIP3  H1           -7.1544397370       -2.0031257789        4.3231958441  CLST         500          1.0000000000
      1500       500  TIP3  H2           -5.8155514917       -1.9468255325        3.6831149353  CLST         500          1.0000000000
      1501       501  TIP3  OH2         -12.5837135890      -13.4373634594       -6.1133983991  CLST         501          1.0000000000
      1502       501  TIP3  H1          -13.3097367101      -12.8022321968       -6.2270537636  CLST         501          1.0000000000
      1503       501  TIP3  H2          -11.8316332440      -12.8333909707       -6.3326137885  CLST         501          1.0000000000
      1504       502  TIP3  OH2          -1.4663678639       -3.6653616706      -11.5034863628  CLST         502          1.0000000000
      1505       502  TIP3  H1           -1.2108398225       -2.7342625519      -11.3910887192  CLST         502          1.0000000000
      1506       502  TIP3  H2           -0.7654524704       -4.1084574463      -11.9954307949  CLST         502          1.0000000000
      1507       503  TIP3  OH2          -0.2741864084       -5.0195900050        1.0855375804  CLST         503          1.0000000000
      1508       503  TIP3  H1            0.5513711801       -4.9821706328        0.6263658720  CLST         503          1.0000000000
      1509       503  TIP3  H2           -0.8017626670       -5.5294375039        0.5073554713  CLST         503          1.0000000000
      1510       504  TIP3  OH2          -4.2593433675       -3.5716346192       12.6038685019  CLST         504          1.0000000000
      1511       504  TIP3  H1           -4.8346890932       -4.3340832310       12.8134013364  CLST         504          1.0000000000
      1512       504  TIP3  H2           -4.1199873091       -3.2038629510       13.5219168877  CLST         504          1.0000000000
      1513       505  TIP3  OH2           5.9006260514       12.1659823106       -9.3545153410  CLST         505          1.0000000000
      1514       505  TIP3  H1            5.9109415094       11.5606393082       -8.5741866168  CLST         505          1.0000000000
      1515       505  TIP3  H2            6.7597535708       12.5219400368       -9.3150318471  CLST         505          1.0000000000
      1516       506  TIP3  OH2          -4.0194268715        3.4879264040       10.3302530828  CLST         506          1.0000000000
      1517       506  TIP3  H1           -4.7134017198        3.5211973696        9.6282748232  CLST         506          1.0000000000
      1518       506  TIP3  H2           -4.3866356166        2.8461172724       10.9376256778  CLST         506          1.0000000000
      1519       507  TIP3  OH2          -2.1852741264        6.8419656093      -12.5669240532  CLST         507          1.0000000000
      1520       507  TIP3  H1           -2.2890421329        5.8806189335      -12.2427151173  CLST         507          1.0000000000
      1521       507  TIP3  H2           -2.9866876789        6.8805968128      -13.1424299837  CLST         507          1.0000000000
      1522       508  TIP3  OH2         -11.2659986405        5.0295115350      -11.7311049084  CLST         508          1.0000000000
      1523       508  TIP3  H1          -12.0291554063        5.5784566199      -11.5295419270  CLST         508          1.0000000000
      1524       508  TIP3  H2          -11.6138687889        4.1980805177      -12.0446445740  CLST         508          1.0000000000
      1525       509  TIP3  OH2           5.1563856950        0.4882161194      -10.9543473393  CLST         509          1.0000000000
      1526       509  TIP3  H1            5.7534508128        0.5253954207      -10.1928401176  CLST         509          1.0000000000
      1527       509  TIP3  H2            5.8349558610        0.2066666833      -11.6317653363  CLST         509          1.0000000000
      1528       510  TIP3  OH2          -4.4356104464        0.1397675464       -3.8510511691  CLST         510          1.0000000000
      1529       510  TIP3  H1           -4.8950704178       -0.2133787210       -4.6704803256  CLST         510          1.0000000000
      1530       510  TIP3  H2           -3.6476555610        0.6350846048       -4.1206856209  CLST         510          1.0000000000
      1531       511  TIP3  OH2         -10.7966179666        1.6497883496       -0.9639893322  CLST         511          1.0000000000
      1532       511  TIP3  H1          -11.1564927318        2.2635469760       -0.3105089261  CLST         511          1.0000000000
      1533       511  TIP3  H2          -11.1314247973        0.8157256596       -0.5716933863  CLST         511          1.0000000000
      1534       512  TIP3  OH2          -3.2435258232       -8.2427512264       -8.5507773935  CLST         512          1.0000000000
      1535       512  TIP3  H1           -3.3074695190       -8.8359381848       -9.3302064558  CLST         512          1.0000000000
      1536       512  TIP3  H2           -2.8356500756       -7.4559827056       -8.9591534707  CLST         512          1.0000000000
      1537       513  TIP3  OH2           9.4725761770       14.5236751926       11.3910762266  CLST         513          1.0000000000
      1538       513  TIP3  H1            9.5338583836       15.4114823601       10.9980191161  CLST         513          1.0000000000
      1539       513  TIP3  H2            8.9614018049       14.0191764087       10.6850017134  CLST         513          1.0000000000
      1540       514  TIP3  OH2          -4.8527274547        7.9362656873      -13.0722493922  CLST         514          1.0000000000
      1541       514  TIP3  H1           -5.1517280308        8.1353588882      -13.9614682946  CLST         514          1.0000000000
      1542       514  TIP3  H2           -5.7121725110        8.0421816776      -12.5793174062  CLST         514          1.0000000000
      1543       515  TIP3  OH2           6.1016395789        6.0305434357       -6.1242838076  CLST         515          1.0000000000
      1544       515  TIP3  H1            5.4861049089        6.0960767093       -5.3444418790  CLST         515          1.0000000000
      1545       515  TIP3  H2            6.7869940077        6.6089638084       -5.7939651637  CLST         515          1.0000000000
      1546       516  TIP3  OH2           9.4391466194        0.4069636560       -8.2469959992  CLST         516          1.0000000000
      1547       516  TIP3  H1           10.3650304590        0.3206917015       -7.9965454741  CLST         516          1.0000000000
      1548       516  TIP3  H2            9.2990733884        1.3357989047       -7.8446583393  CLST         516          1.0000000000
      1549       517  TIP3  OH2          14.0511593520       -7.0691766548       -9.0689277285  CLST         517          1.0000000000
      1550       517  TIP3  H1           14.4639672705       -6.2263773148       -8.8995105697  CLST         517          1.0000000000
      1551       517  TIP3  H2           14.6579540987       -7.6927932512       -8.6026340017  CLST         517          1.0000000000
      1552       518  TIP3  OH2          -0.7423529682       12.2804897883       -5.8617385718  CLST         518          1.0000000000
      1553       518  TIP3  H1            0.1660023874       12.3040375085       -6.1353280737  CLST         518          1.0000000000
      1554       518  TIP3  H2           -0.8105722771       13.0954501285       -5.3020814876  CLST         518          1.0000000000
      1555       519  TIP3  OH2           0.7566222881        5.1188511587        1.1964406197  CLST         519          1.0000000000
      1556       519  TIP3  H1            0.9350539840        4.1711865376        1.0900050621  CLST         519          1.0000000000
      1557       519  TIP3  H2           -0.2201004502        5.0943534538        1.0469089420  CLST         519          1.0000000000
      1558       520  TIP3  OH2           6.8312357347        6.7487001618      -10.5490011126  CLST         520          1.0000000000
      1559       520  TIP3  H1            5.9873026564        7.2487139852      -10.6210056259  CLST         520          1.0000000000
      1560       520  TIP3  H2            7.2657076985        7.2318651879       -9.7919631151  CLST         520          1.0000000000
      1561       521  TIP3  OH2          -5.6577023811       10.1736369761        9.5123165549  CLST         521          1.0000000000
      1562       521  TIP3  H1           -4.7466778137       10.3008221906        9.9092994675  CLST         521          1.0000000000
      1563       521  TIP3  H2           -5.4870183340       10.4850223603        8.6286837417  CLST         521          1.0000000000
      1564       522  TIP3  OH2           2.9787237186        3.9970359907        2.1663735741  CLST         522          1.0000000000
      1565       522  TIP3  H1            2.1844683201        4.5315603483        1.8871564035  CLST         522          1.0000000000
      1566       522  TIP3  H2            3.1405316443        3.5487287476        1.3485619498  CLST         522          1.0000000000
      1567       523  TIP3  OH2           8.3023539758        0.6226813243       -3.4415360209  CLST         523          1.0000000000
      1568       523  TIP3  H1            7.3759148946        0.4331882181       -3.6052532337  CLST         523          1.0000000000
      1569       523  TIP3  H2            8.6631468474       -0.1990548609       -3.8845883391  CLST         523          1.0000000000
      1570       524  TIP3  OH2          -5.1936616884        5.8264195140      -10.7059045228  CLST         524          1.0000000000
      1571       524  TIP3  H1           -4.7443456683        6.6306087780      -11.0793722527  CLST         524          1.0000000000
      1572       524  TIP3  H2           -4.6325840983        5.1097339832      -10.9393732666  CLST         524          1.0000000000
      1573       525  TIP3  OH2          -5.6238166674        5.8097023419       -8.0052165734  CLST         525          1.0000000000
      1574       525  TIP3  H1           -5.0305421812        6.5242173476       -8.2898247174  CLST         525          1.0000000000
      1575       525  TIP3  H2           -5.3405402556        5.1924889461       -8.7440660050  CLST         525          1.0000000000
      1576       526  TIP3  OH2           9.5228834989      -11.1326810511      -13.0206863696  CLST         526          1.0000000000
      1577       526  TIP3  H1           10.1632197650      -10.7843322756      -13.6638096660  CLST         526          1.0000000000
      1578       526  TIP3  H2            8.6845413206      -10.8337140143      -13.3821781466  CLST         526          1.0000000000
      1579       527  TIP3  OH2         -11.5217073350       -3.1831692333       -1.5806424745  CLST         527          1.0000000000
      1580       527  TIP3  H1          -12.3552113320       -3.6980734363       -1.7935461789  CLST         527          1.0000000000
      1581       527  TIP3  H2          -10.9147790484       -3.4315949511       -2.2327576207  CLST         527          1.0000000000
      1582       528  TIP3  OH2           4.6649977361      -12.0256425360      -11.2100242760  CLST         528          1.0000000000
      1583       528  TIP3  H1            4.5361774928      -11.1525678184      -10.9084072694  CLST         528          1.0000000000
      1584       528  TIP3  H2            4.9705911215      -11.9176460971      -12.1458383733  CLST         528          1.0000000000
      1585       529  TIP3  OH2          -5.9223523608       -6.9085036341       -4.7405570246  CLST         529          1.0000000000
      1586       529  TIP3  H1           -5.2341398242       -7.5692337438       -4.8863999117  CLST         529          1.0000000000
      1587       529  TIP3  H2           -5.5854326891       -6.1147715967       -5.1769268005  CLST         529          1.0000000000
      1588       530  TIP3  OH2           2.7538065491       -5.7944945777        6.4907305070  CLST         530          1.0000000000
      1589       530  TIP3  H1            2.3293345296       -6.3132457158        7.2202486909  CLST         530          1.0000000000
      1590       530  TIP3  H2            1.9640921682       -5.7749337484        5.8558709449  CLST         530          1.0000000000
      1591       531  TIP3  OH2          -3.3045719538       -3.3868945061      -14.9251686154  CLST         531          1.0000000000
      1592       531  TIP3  H1           -4.1284057721       -2.8391313257      -14.8653640648  CLST         531          1.0000000000
      1593       531  TIP3  H2           -2.7461524267       -2.6106810584      -14.9673328132  CLST         531          1.0000000000
      1594       532  TIP3  OH2          -1.0910286050       -3.6381023040       -2.0124481924  CLST         532          1.0000000000
      1595       532  TIP3  H1           -1.6506807408       -2.8487691059       -2.1241668901  CLST         532          1.0000000000
      1596       532  TIP3  H2           -1.7129239538       -4.2448323184       -1.6338762209  CLST         532          1.0000000000
      1597       533  TIP3  OH2          -3.1836606947       13.4676610659        8.0521014715  CLST         533          1.0000000000
      1598       533  TIP3  H1           -4.0990035662       13.5868697673        7.8702485462  CLST         533          1.0000000000
      1599       533  TIP3  H2           -3.1381997275       12.5371454663        8.0938998531  CLST         533          1.0000000000
      1600       534  TIP3  OH2           6.8622047295       -4.3758317918       -5.1543456726  CLST         534          1.0000000000
      1601       534  TIP3  H1            6.0746083186       -4.4087438967       -4.5637766815  CLST         534          1.0000000000
      1602       534  TIP3  H2            6.3650087547       -4.3666959973       -6.0168883798  CLST         534          1.0000000000
      1603       535  TIP3  OH2           7.0726037254       -3.8133548627      -11.5747020707  CLST         535          1.0000000000
      1604       535  TIP3  H1            6.3376038019       -3.4209466717      -11.1288868496  CLST         535          1.0000000000
      1605       535  TIP3  H2            7.4089447971       -4.3378934507      -10.8557226916  CLST         535          1.0000000000
      1606       536  TIP3  OH2          14.7214493184        7.9551400870       10.7867347151  CLST         536          1.0000000000
      1607       536  TIP3  H1           14.2606572892        8.7634578911       11.1486206776  CLST         536          1.0000000000
      1608       536  TIP3  H2           15.2713631388        8.4248300357       10.1306184495  CLST         536          1.0000000000
      1609       537  TIP3  OH2           4.6761040816       -4.3399330428       -3.6372844537  CLST         537          1.0000000000
      1610       537  TIP3  H1            3.9291892065       -3.8179193667       -4.0223695469  CLST         537          1.0000000000
      1611       537  TIP3  H2            4.2224808165       -5.1786840404       -3.3343163360  CLST         537          1.0000000000
      1612       538  TIP3  OH2          -0.5511576720        7.6048540015       13.1317925487  CLST         538          1.0000000000
      1613       538  TIP3  H1           -1.1427346421        7.5137557871       12.3898455317  CLST         538          1.0000000000
      1614       538  TIP3  H2           -0.6631948912        8.6085752961       13.3328179743  CLST         538          1.0000000000
      1615       539  TIP3  OH2           6.1524102024        8.7005054976        1.0873179709  CLST         539          1.0000000000
      1616       539  TIP3  H1            6.7626767539        8.0701169574        0.6429199878  CLST         539          1.0000000000
      1617       539  TIP3  H2            5.6562635393        8.0661774394        1.6286415404  CLST         539          1.0000000000
      1618       540  TIP3  OH2          12.3036506229       -1.1651988781       -4.0285816952  CLST         540          1.0000000000
      1619       540  TIP3  H1           12.8954433856       -0.4777675425       -4.2136745449  CLST         540          1.0000000000
      1620       540  TIP3  H2           12.3116242723       -1.1943499858       -3.0517682326  CLST         540          1.0000000000
      1621       541  TIP3  OH2          10.4104689902        7.1944064110        8.4525741413  CLST         541          1.0000000000
      1622       541  TIP3  H1           10.2827987243        7.5925348582        9.3255430281  CLST         541          1.0000000000
      1623       541  TIP3  H2           11.1229413497        6.6295092638        8.6436051195  CLST         541          1.0000000000
      1624       542  TIP3  OH2          13.6471120033        0.8563391236       -5.4334967488  CLST         542          1.0000000000
      1625       542  TIP3  H1           13.2509642530        1.5341844805       -5.9526941508  CLST         542          1.0000000000
      1626       542  TIP3  H2           14.1807585636        0.5327315746       -6.1897064458  CLST         542          1.0000000000
      1627       543  TIP3  OH2          10.0621971787       -6.4779489386        5.6269202405  CLST         543          1.0000000000
      1628       543  TIP3  H1            9.9012404994       -7.3281988972        5.2251604322  CLST         543          1.0000000000
      1629       543  TIP3  H2            9.7249005154       -5.8490677983        4.9160477156  CLST         543          1.0000000000
      1630       544  TIP3  OH2           6.8377391344        4.3443443427      -12.2063283096  CLST         544          1.0000000000
      1631       544  TIP3  H1            7.3354876700        3.6913430979      -11.7335135440  CLST         544          1.0000000000
      1632       544  TIP3  H2            6.9195792228        5.0613863164      -11.6006181293  CLST         544          1.0000000000
      1633       545  TIP3  OH2         -12.0506323007        2.0103143593        7.4003264421  CLST         545          1.0000000000
      1634       545  TIP3  H1          -12.6858177191        2.7974446573        7.3308826751  CLST         545          1.0000000000
      1635       545  TIP3  H2          -11.7308548950        2.2476967048        8.2556146782  CLST         545          1.0000000000
      1636       546  TIP3  OH2          -1.0893427716       12.0592161675       10.8152813083  CLST         546          1.0000000000
      1637       546  TIP3  H1           -0.7951205236       12.5157638887       10.0342055577  CLST         546          1.0000000000
      1638       546  TIP3  H2           -0.4069110189       12.2590608533       11.4772825848  CLST         546          1.0000000000
      1639       547  TIP3  OH2          -2.2959144549        7.1852288528        6.0000684961  CLST         547          1.0000000000
      1640       547  TIP3  H1           -2.1717623325        6.8699777445        6.9681206902  CLST         547          1.0000000000
      1641       547  TIP3  H2           -1.7739298459        6.5098149006        5.5804522264  CLST         547          1.0000000000
      1642       548  TIP3  OH2           2.8911663475       -7.5552421116       12.7419360568  CLST         548          1.0000000000
      1643       548  TIP3  H1            2.6483626894       -6.6330157962       12.8471001085  CLST         548          1.0000000000
      1644       548  TIP3  H2            3.8044233667       -7.3167614984       12.4634243515  CLST         548          1.0000000000
      1645       549  TIP3  OH2          -6.4952947272       14.9404189292        3.2305178123  CLST         549          1.0000000000
      1646       549  TIP3  H1           -7.1025674575       15.5310561158        3.6798684936  CLST         549          1.0000000000
      1647       549  TIP3  H2           -6.7364439791       14.0265071869        3.5062039051  CLST         549          1.0000000000
      1648       550  TIP3  OH2          -8.0907574202        4.5931574048       -4.3051089029  CLST         550          1.0000000000
      1649       550  TIP3  H1           -8.2828153378        3.7955114117       -3.7648349510  CLST         550          1.0000000000
      1650       550  TIP3  H2           -8.6515440967        5.2770818406       -3.9415604132  CLST         550          1.0000000000
      1651       551  TIP3  OH2          -2.3734369111      -13.4570633961       -3.3076066423  CLST         551          1.0000000000
      1652       551  TIP3  H1           -2.0077261797      -13.4397369915       -2.3632286687  CLST         551          1.0000000000
      1653       551  TIP3  H2           -3.3340625949      -13.2644447298       -3.2292244835  CLST         551          1.0000000000
      1654       552  TIP3  OH2          -2.3786838241       -7.7413026797       13.7752183204  CLST         552          1.0000000000
      1655       552  TIP3  H1           -2.6829631755       -8.6182003965       14.0487086290  CLST         552          1.0000000000
      1656       552  TIP3  H2           -1.5025595982       -7.8773052689       13.3633390007  CLST         552          1.0000000000
      1657       553  TIP3  OH2           8.3229510914      -13.8391560406        0.1657383635  CLST         553          1.0000000000
      1658       553  TIP3  H1            8.5393672485      -12.9984847381        0.5577464307  CLST         553          1.0000000000
      1659       553  TIP3  H2            8.7657331263      -14.5430750910        0.6742804575  CLST         553          1.0000000000
      1660       554  TIP3  OH2          -9.3141516529      -12.2051237395       -3.6841811766  CLST         554          1.0000000000
      1661       554  TIP3  H1           -9.4557554179      -11.6548450769       -2.9828219638  CLST         554          1.0000000000
      1662       554  TIP3  H2          -10.0635162044      -12.7823415534       -3.4322034590  CLST         554          1.0000000000
      1663       555  TIP3  OH2         -11.0006713385       -5.1749306480       -7.7252803379  CLST         555          1.0000000000
      1664       555  TIP3  H1          -11.3201621771       -4.2623668715       -7.7135534386  CLST         555          1.0000000000
      1665       555  TIP3  H2          -10.7196917601       -5.2275563005       -6.7470383880  CLST         555          1.0000000000
      1666       556  TIP3  OH2         -10.3960167884       11.1297363518       13.6120143021  CLST         556          1.0000000000
      1667       556  TIP3  H1          -10.7827688632       10.4331333323       14.1318748509  CLST         556          1.0000000000
      1668       556  TIP3  H2           -9.5692411413       10.7533596254       13.3302574769  CLST         556          1.0000000000
      1669       557  TIP3  OH2          -2.5878465831       -6.6781132824        1.3879765495  CLST         557          1.0000000000
      1670       557  TIP3  H1           -2.4746311536       -6.8869869629        2.3553335872  CLST         557          1.0000000000
      1671       557  TIP3  H2           -2.3482012074       -7.5327590903        0.9158546071  CLST         557          1.0000000000
      1672       558  TIP3  OH2         -10.3184057343        6.1123425554        3.1277244154  CLST         558          1.0000000000
      1673       558  TIP3  H1          -10.2883329624        5.6617864815        3.9199679285  CLST         558          1.0000000000
      1674       558  TIP3  H2           -9.8468845932        5.5275306197        2.5636728577  CLST         558          1.0000000000
      1675       559  TIP3  OH2           1.1654846800        2.3565383218        0.0172672426  CLST         559          1.0000000000
      1676       559  TIP3  H1            1.9669299128        2.4770332142       -0.5033082427  CLST         559          1.0000000000
      1677       559  TIP3  H2            1.0417245966        1.3562980725       -0.1803468748  CLST         559          1.0000000000
      1678       560  TIP3  OH2          12.5390755760      -11.7628513396        0.9924235610  CLST         560          1.0000000000
      1679       560  TIP3  H1           12.7233199109      -11.4371294602        0.0692650280  CLST         560          1.0000000000
      1680       560  TIP3  H2           12.2561409822      -12.6827668956        0.7300043593  CLST         560          1.0000000000
      1681       561  TIP3  OH2         -13.0151762352        8.6084822160      -10.7262694188  CLST         561          1.0000000000
      1682       561  TIP3  H1          -13.0196831071        9.0595214937      -11.6063446079  CLST         561          1.0000000000
      1683       561  TIP3  H2          -12.0339948286        8.3852797655      -10.6041036887  CLST         561          1.0000000000
      1684       562  TIP3  OH2           9.8133789136        6.9116832438       13.3498297850  CLST         562          1.0000000000
      1685       562  TIP3  H1           10.3695155852        7.3065101330       14.0556972211  CLST         562          1.0000000000
      1686       562  TIP3  H2           10.0111845915        5.9682246549       13.5757830484  CLST         562          1.0000000000
      1687       563  TIP3  OH2           3.1140752758      -10.3425531619       -6.7155335774  CLST         563          1.0000000000
      1688       563  TIP3  H1            3.7976258103      -11.0851143552       -6.6564158353  CLST         563          1.0000000000
      1689       563  TIP3  H2            2.3826422061      -10.8392163635       -7.1669900493  CLST         563          1.0000000000
      1690       564  TIP3  OH2           4.7286782744      -13.5622376028       -2.7475838181  CLST         564          1.0000000000
      1691       564  TIP3  H1            5.2763627763      -13.8003023287       -3.5553103409  CLST         564          1.0000000000
      1692       564  TIP3  H2            3.9984647411      -13.1203097401       -3.2379442281  CLST         564          1.0000000000
      1693       565  TIP3  OH2           1.4677962239       12.2433109435        0.2535700444  CLST         565          1.0000000000
      1694       565  TIP3  H1            1.0550018767       11.3725164684       -0.0556351687  CLST         565          1.0000000000
      1695       565  TIP3  H2            2.3780511098       12.0881257245       -0.0057382111  CLST         565          1.0000000000
      1696       566  TIP3  OH2          -8.9180112341        5.5480288731        0.9372870852  CLST         566          1.0000000000
      1697       566  TIP3  H1           -8.5065033264        4.7932680962        0.4943798127  CLST         566          1.0000000000
      1698       566  TIP3  H2           -9.5550056231        5.8785034934        0.2587191287  CLST         566          1.0000000000
      1699       567  TIP3  OH2          12.2488141365       -0.2318710397       -8.2278105217  CLST         567          1.0000000000
      1700       567  TIP3  H1           13.2078370397       -0.1052697310       -8.0563527276  CLST         567          1.0000000000
      1701       567  TIP3  H2           12.2105474131       -0.6346983809       -9.0928519822  CLST         567          1.0000000000
      1702       568  TIP3  OH2           8.9491150457       -7.1005177890       11.5660144200  CLST         568          1.0000000000
      1703       568  TIP3  H1            9.8531578349       -7.0209596311       11.8427344242  CLST         568          1.0000000000
      1704       568  TIP3  H2            8.7817848571       -6.1825246046       11.3796199909  CLST         568          1.0000000000
      1705       569  TIP3  OH2          -8.5670023904       -6.3211025814        3.5435908823  CLST         569          1.0000000000
      1706       569  TIP3  H1           -8.7204120045       -5.6939547770        2.7715041210  CLST         569          1.0000000000
      1707       569  TIP3  H2           -9.1335102302       -7.0571525087        3.2905643730  CLST         569          1.0000000000
      1708       570  TIP3  OH2           6.2908114143       11.8755404519       15.1920079351  CLST         570          1.0000000000
      1709       570  TIP3  H1            5.3626021926       11.8343146163       14.8608942853  CLST         570          1.0000000000
      1710       570  TIP3  H2            6.7773282988       12.0929638660       14.3942850102  CLST         570          1.0000000000
      1711       571  TIP3  OH2           9.4591927080        1.1132534151        4.3006506322  CLST         571          1.0000000000
      1712       571  TIP3  H1            8.7051277744        1.0243090690        4.8893645288  CLST         571          1.0000000000
      1713       571  TIP3  H2            9.1815587363        0.7814854099        3.4147982712  CLST         571          1.0000000000
      1714       572  TIP3  OH2           5.3316392371        0.3303703652        2.2738604172  CLST         572          1.0000000000
      1715       572  TIP3  H1            4.7676735329       -0.3143322303        1.7823520177  CLST         572          1.0000000000
      1716       572  TIP3  H2            6.1196467015       -0.2048559007        2.5555681771  CLST         572          1.0000000000
      1717       573  TIP3  OH2          -1.9514479744       -6.4964732769       -6.4930482076  CLST         573          1.0000000000
      1718       573  TIP3  H1           -1.8757041474       -7.4906451670       -6.5358650298  CLST         573          1.0000000000
      1719       573  TIP3  H2           -1.3560161749       -6.2487331283       -7.2465475720  CLST         573          1.0000000000
      1720       574  TIP3  OH2          -9.8317116925        0.7037584382        9.4453635416  CLST         574          1.0000000000
      1721       574  TIP3  H1           -9.6059184019        1.6452970946        9.7253116452  CLST         574          1.0000000000
      1722       574  TIP3  H2           -9.0072872910        0.5050003175        9.0089101516  CLST         574          1.0000000000
      1723       575  TIP3  OH2          -3.8844194233       10.7606052124        0.9197277930  CLST         575          1.0000000000
      1724       575  TIP3  H1           -3.7676034157       11.1936024662        0.0926840336  CLST         575          1.0000000000
      1725       575  TIP3  H2           -4.6150400747       11.3590698907        1.3812102767  CLST         575          1.0000000000
      1726       576  TIP3  OH2          -3.5669677381       -2.5833496929        6.3274273632  CLST         576          1.0000000000
      1727       576  TIP3  H1           -3.9663695228       -1.6703769749        6.1311401482  CLST         576          1.0000000000
      1728       576  TIP3  H2           -2.8213451004       -2.5269077703        5.7059952003  CLST         576          1.0000000000
      1729       577  TIP3  OH2         -12.0250864277       11.2368532582        8.4631849863  CLST         577          1.0000000000
      1730       577  TIP3  H1          -11.9040251046       12.1816173801        8.7823697522  CLST         577          1.0000000000
      1731       577  TIP3  H2          -12.1015492720       11.3337912915        7.5106195260  CLST         577          1.0000000000
      1732       578  TIP3  OH2          -1.7933638515        0.9842077607        5.3681776409  CLST         578          1.0000000000
      1733       578  TIP3  H1           -2.4732067399        1.4178244352        4.8496997118  CLST         578          1.0000000000
      1734       578  TIP3  H2           -2.1621627630        0.7830773330        6.2111037434  CLST         578          1.0000000000
      1735       579  TIP3  OH2          -6.5741336488       11.6605971482        1.7162186662  CLST         579          1.0000000000
      1736       579  TIP3  H1           -6.7625686759       12.4593818679        1.1407852375  CLST         579          1.0000000000
      1737       579  TIP3  H2           -6.7218696675       10.9053421507        1.1476744580  CLST         579          1.0000000000
      1738       580  TIP3  OH2          11.2256143638        3.6646981360       -3.2886837902  CLST         580          1.0000000000
      1739       580  TIP3  H1           11.0543571292        2.7154714570       -3.0198439805  CLST         580          1.0000000000
      1740       580  TIP3  H2           11.6592882710        3.9760040053       -2.4573305520  CLST         580          1.0000000000
      1741       581  TIP3  OH2          12.9282519588      -11.8704667450        3.8230712895  CLST         581          1.0000000000
      1742       581  TIP3  H1           12.8351885961      -12.0825957674        2.8885262090  CLST         581          1.0000000000
      1743       581  TIP3  H2           13.8662713014      -12.0232742889        3.8702512809  CLST         581          1.0000000000
      1744       582  TIP3  OH2           6.2798469729       10.8554786905       -6.9855900426  CLST         582          1.0000000000
      1745       582  TIP3  H1            5.5912744350       10.3387259166       -6.6544948607  CLST         582          1.0000000000
      1746       582  TIP3  H2            6.6697675243       11.2303519591       -6.1820443129  CLST         582          1.0000000000
      1747       583  TIP3  OH2          -2.4954419649        4.3072702234      -10.9019995770  CLST         583          1.0000000000
      1748       583  TIP3  H1           -3.2664520316        3.7999133211      -11.2063228674  CLST         583          1.0000000000
      1749       583  TIP3  H2           -1.8017953698        3.8793940048      -11.4232817278  CLST         583          1.0000000000
      1750       584  TIP3  OH2           2.1810305350       -3.8982281582       -9.8601842122  CLST         584          1.0000000000
      1751       584  TIP3  H1            2.8658359985       -4.5714162870       -9.8419260942  CLST         584          1.0000000000
      1752       584  TIP3  H2            2.7167458251       -3.1378802616      -10.0740465976  CLST         584          1.0000000000
      1753       585  TIP3  OH2         -14.0348647812        1.0213195406       -2.0239223334  CLST         585          1.0000000000
      1754       585  TIP3  H1          -13.8019521345        1.6688854143       -2.7376039308  CLST         585          1.0000000000
      1755       585  TIP3  H2          -14.9446757959        0.8760947966       -2.1358284205  CLST         585          1.0000000000
      1756       586  TIP3  OH2          -7.4374834471        8.4546008572       10.5994458519  CLST         586          1.0000000000
      1757       586  TIP3  H1           -7.0730244943        9.0318474783        9.9165122367  CLST         586          1.0000000000
      1758       586  TIP3  H2           -7.4172737986        7.5842262665       10.1644771426  CLST         586          1.0000000000
      1759       587  TIP3  OH2           4.7523645544        4.4849602731       -9.8493556900  CLST         587          1.0000000000
      1760       587  TIP3  H1            4.0078810813        4.8550997005      -10.3769258923  CLST         587          1.0000000000
      1761       587  TIP3  H2            5.4213169125        4.9589815516      -10.2910087296  CLST         587          1.0000000000
      1762       588  TIP3  OH2           4.8916456313       -9.6399610023      -14.1355255671  CLST         588          1.0000000000
      1763       588  TIP3  H1            4.0049031145       -9.5523214363      -14.5329222633  CLST         588          1.0000000000
      1764       588  TIP3  H2            4.8968073835       -9.1195841463      -13.3402235063  CLST         588          1.0000000000
      1765       589  TIP3  OH2           0.3422793999      -14.3672271930        3.0390294995  CLST         589          1.0000000000
      1766       589  TIP3  H1            0.0321466050      -15.2220873664        2.6610401190  CLST         589          1.0000000000
      1767       589  TIP3  H2           -0.3616856143      -14.0913003800        3.5504972855  CLST         589          1.0000000000
      1768       590  TIP3  OH2           2.3544063901        1.8946684215       -8.1770311883  CLST         590          1.0000000000
      1769       590  TIP3  H1            1.6105538415        2.4310309813       -7.7750267515  CLST         590          1.0000000000
      1770       590  TIP3  H2            2.1814285522        2.0470340611       -9.0891933496  CLST         590          1.0000000000
      1771       591  TIP3  OH2         -13.0027379261        0.7962214448       -6.7352654828  CLST         591          1.0000000000
      1772       591  TIP3  H1          -12.0633916283        0.8701231239       -6.5005928474  CLST         591          1.0000000000
      1773       591  TIP3  H2          -13.2308840776        1.6712615977       -6.3746961078  CLST         591          1.0000000000
      1774       592  TIP3  OH2          -4.3286280527       -3.8234116832       -6.3161406002  CLST         592          1.0000000000
      1775       592  TIP3  H1           -3.4777681999       -4.1930871765       -6.6237506253  CLST         592          1.0000000000
      1776       592  TIP3  H2           -4.9842918684       -4.2497890859       -6.9055943085  CLST         592          1.0000000000
      1777       593  TIP3  OH2          -1.7270145424        5.3609205040       -4.6353594102  CLST         593          1.0000000000
      1778       593  TIP3  H1           -2.1696076978        6.2163851324       -4.3927115707  CLST         593          1.0000000000
      1779       593  TIP3  H2           -0.9145225222        5.6936326424       -5.0699348223  CLST         593          1.0000000000
      1780       594  TIP3  OH2          11.0818321574       10.4972650012       13.5379726580  CLST         594          1.0000000000
      1781       594  TIP3  H1           11.1866581017        9.9264056250       14.2906510510  CLST         594          1.0000000000
      1782       594  TIP3  H2           10.0909879311       10.5323927597       13.4030994660  CLST         594          1.0000000000
      1783       595  TIP3  OH2          -9.2491069225       13.7105461569        4.4889605971  CLST         595          1.0000000000
      1784       595  TIP3  H1           -9.6056726714       14.4514902265        4.0244655780  CLST         595          1.0000000000
      1785       595  TIP3  H2           -9.5128941539       12.9528881611        3.9514304718  CLST         595          1.0000000000
      1786       596  TIP3  OH2         -14.1451514780       -0.7804775764        8.7768495919  CLST         596          1.0000000000
      1787       596  TIP3  H1          -14.0448412258       -1.7075826813        9.1390088649  CLST         596          1.0000000000
      1788       596  TIP3  H2          -13.5275156437       -0.7501492132        8.0468535206  CLST         596          1.0000000000
      1789       597  TIP3  OH2          -3.0525286916       -5.4498545579       -4.2849060437  CLST         597          1.0000000000
      1790       597  TIP3  H1           -2.6207821830       -5.8988828437       -4.9940974750  CLST         597          1.0000000000
      1791       597  TIP3  H2           -2.9944501614       -4.6093112590       -4.7576131910  CLST         597          1.0000000000
      1792       598  TIP3  OH2          -8.0956325118       -9.5366741479       -9.1310783676  CLST         598          1.0000000000
      1793       598  TIP3  H1           -9.0155782529       -9.9254803669       -9.2515931694  CLST         598          1.0000000000
      1794       598  TIP3  H2           -8.1785967554       -8.6438216047       -9.6515901819  CLST         598          1.0000000000
      1795       599  TIP3  OH2          12.1548721661        0.0599699655      -13.0276158851  CLST         599          1.0000000000
      1796       599  TIP3  H1           12.6780415226        0.5534649677      -13.6552863462  CLST         599          1.0000000000
      1797       599  TIP3  H2           11.7578090888       -0.5001914345      -13.6301765884  CLST         599          1.0000000000
      1798       600  TIP3  OH2          14.1045160283       -9.3438085688        1.5611285659  CLST         600          1.0000000000
      1799       600  TIP3  H1           14.5006625372      -10.1812853568        1.7640705295  CLST         600          1.0000000000
      1800       600  TIP3  H2           13.6149742159       -9.6295352601        0.7661572102  CLST         600          1.0000000000
      1801       601  TIP3  OH2          -2.2543382149       13.3317853707       -8.1984568835  CLST         601          1.0000000000
      1802       601  TIP3  H1           -1.5623983655       13.3402279477       -7.5213742398  CLST         601          1.0000000000
      1803       601  TIP3  H2           -1.6951337829       13.1549639245       -8.9921436269  CLST         601          1.0000000000
      1804       602  TIP3  OH2          13.9391985653       -3.0698341696        8.7348907765  CLST         602          1.0000000000
      1805       602  TIP3  H1           12.9731276763       -2.9421089772        8.6479428141  CLST         602          1.0000000000
      1806       602  TIP3  H2           14.0513741678       -3.4043465350        7.8512468470  CLST         602          1.0000000000
      1807       603  TIP3  OH2          -8.1832174240       -9.5812843897      -12.3193507668  CLST         603          1.0000000000
      1808       603  TIP3  H1           -8.7845350836       -8.8544649720      -12.0214358447  CLST         603          1.0000000000
      1809       603  TIP3  H2           -8.5943220993      -10.3599197827      -11.9263463430  CLST         603          1.0000000000
      1810       604  TIP3  OH2           0.0424679583       -7.8323790513       12.2013730916  CLST         604          1.0000000000
      1811       604  TIP3  H1            0.0477683843       -6.9669064398       11.8027639588  CLST         604          1.0000000000
      1812       604  TIP3  H2            0.9288485899       -7.9201548700       12.5600634857  CLST         604          1.0000000000
      1813       605  TIP3  OH2           9.9189638682        8.3228227951        3.7763036149  CLST         605          1.0000000000
      1814       605  TIP3  H1            9.2746830162        8.8106073581        3.2572651910  CLST         605          1.0000000000
      1815       605  TIP3  H2           10.5393150428        8.9848375181        4.1280028355  CLST         605          1.0000000000
      1816       606  TIP3  OH2           0.8700406526        8.7580862244       -6.3208666793  CLST         606          1.0000000000
      1817       606  TIP3  H1            1.3695190024        9.4886345454       -5.9630241271  CLST         606          1.0000000000
      1818       606  TIP3  H2           -0.0119370178        9.2206215199       -6.3053614751  CLST         606          1.0000000000
      1819       607  TIP3  OH2          -4.9456706077        1.3090337984      -14.4530067299  CLST         607          1.0000000000
      1820       607  TIP3  H1           -5.8197182506        1.4129850611      -13.9311883063  CLST         607          1.0000000000
      1821       607  TIP3  H2           -5.1964303784        0.9243316788      -15.3393409980  CLST         607          1.0000000000
      1822       608  TIP3  OH2          -2.6095342208       -0.5011886025      -11.5791260670  CLST         608          1.0000000000
      1823       608  TIP3  H1           -1.7826079911       -0.4168466035      -11.0628828181  CLST         608          1.0000000000
      1824       608  TIP3  H2           -2.2875547405       -0.2525120682      -12.4689215419  CLST         608          1.0000000000
      1825       609  TIP3  OH2           3.7235270444        8.0764342359        3.1279455572  CLST         609          1.0000000000
      1826       609  TIP3  H1            4.2226550096        8.5570717358        3.7946338738  CLST         609          1.0000000000
      1827       609  TIP3  H2            4.1962057861        7.2489809513        3.1353598995  CLST         609          1.0000000000
      1828       610  TIP3  OH2          -7.7139611230       -9.0417467395       11.6839741737  CLST         610          1.0000000000
      1829       610  TIP3  H1           -7.3370910501       -9.9011671651       11.2874841370  CLST         610          1.0000000000
      1830       610  TIP3  H2           -6.9099007329       -8.6622891074       11.9299575172  CLST         610          1.0000000000
      1831       611  TIP3  OH2          14.0844368696       -4.2378597668        6.2193083543  CLST         611          1.0000000000
      1832       611  TIP3  H1           14.6663733997       -4.8392790155        5.7277383261  CLST         611          1.0000000000
      1833       611  TIP3  H2           14.0148106401       -3.6747937585        5.4695220063  CLST         611          1.0000000000
      1834       612  TIP3  OH2          -8.9076713668      -10.6478582812        6.1117998531  CLST         612          1.0000000000
      1835       612  TIP3  H1           -8.0088136745      -10.3832015333        5.8275142957  CLST         612          1.0000000000
      1836       612  TIP3  H2           -9.4746836072      -10.0343145348        5.7038085059  CLST         612          1.0000000000
      1837       613  TIP3  OH2           2.5069480100       -2.2485044596       14.4890906417  CLST         613          1.0000000000
      1838       613  TIP3  H1            2.1762677127       -3.1024472874       14.7946270944  CLST         613          1.0000000000
      1839       613  TIP3  H2            1.7170784074       -1.9160436054       13.9848676053  CLST         613          1.0000000000
      1840       614  TIP3  OH2           1.0319359576        4.5301933004       -8.9909908734  CLST         614          1.0000000000
      1841       614  TIP3  H1            1.6926942142        4.3447452278       -8.3059328769  CLST         614          1.0000000000
      1842       614  TIP3  H2            0.7357711488        5.4083649969       -8.7572380022  CLST         614          1.0000000000
      1843       615  TIP3  OH2           1.2113330768        4.4950332435        7.1199426456  CLST         615          1.0000000000
      1844       615  TIP3  H1            1.8684690205        4.7108897064        7.7453638883  CLST         615          1.0000000000
      1845       615  TIP3  H2            1.6980338048        4.3522118944        6.2496618379  CLST         615          1.0000000000
      1846       616  TIP3  OH2          -7.7174543257        4.2932578430       -7.3720147403  CLST         616          1.0000000000
      1847       616  TIP3  H1           -8.3103229307        4.1266092848       -8.0808101877  CLST         616          1.0000000000
      1848       616  TIP3  H2           -7.1493980764        4.9677064476       -7.7857704344  CLST         616          1.0000000000
      1849       617  TIP3  OH2          14.8224020843        2.0572695242       11.9559590130  CLST         617          1.0000000000
      1850       617  TIP3  H1           14.6117856009        1.1994741405       12.3711021382  CLST         617          1.0000000000
      1851       617  TIP3  H2           13.8919272868        2.2892067628       11.8579406450  CLST         617          1.0000000000
      1852       618  TIP3  OH2          -7.1393419556        3.2483374664        2.6922120562  CLST         618          1.0000000000
      1853       618  TIP3  H1           -6.5592303518        3.9384533690        2.2489760000  CLST         618          1.0000000000
      1854       618  TIP3  H2           -6.7000237161        3.0923650114        3.5287369819  CLST         618          1.0000000000
      1855       619  TIP3  OH2           1.3142855857        5.4693601826       -2.4597872959  CLST         619          1.0000000000
      1856       619  TIP3  H1            0.6707227393        4.9539394075       -1.9336480038  CLST         619          1.0000000000
      1857       619  TIP3  H2            0.7258081239        6.1889828525       -2.5911631507  CLST         619          1.0000000000
      1858       620  TIP3  OH2          -3.4363295293        8.4087902358       -6.0212909976  CLST         620          1.0000000000
      1859       620  TIP3  H1           -3.6824601571        7.8790652581       -5.2986668600  CLST         620          1.0000000000
      1860       620  TIP3  H2           -3.5767772721        7.8405589371       -6.7440569457  CLST         620          1.0000000000
      1861       621  TIP3  OH2           0.9654459470        7.4750283551       -8.7534803842  CLST         621          1.0000000000
      1862       621  TIP3  H1            1.1586354509        7.9554476659       -7.8986690080  CLST         621          1.0000000000
      1863       621  TIP3  H2            0.8994843085        8.1425538109       -9.4162317181  CLST         621          1.0000000000
      1864       622  TIP3  OH2           1.9856780519       10.4281800768        4.0444209695  CLST         622          1.0000000000
      1865       622  TIP3  H1            2.7271711568       10.3367561898        4.6893208206  CLST         622          1.0000000000
      1866       622  TIP3  H2            1.2540124236       10.0080241390        4.5941886424  CLST         622          1.0000000000
      1867       623  TIP3  OH2          -0.0182053517       12.2669158850        2.5701467876  CLST         623          1.0000000000
      1868       623  TIP3  H1            0.6772635118       12.2316789863        1.8529459425  CLST         623          1.0000000000
      1869       623  TIP3  H2            0.4001582578       11.6758512651        3.2244518273  CLST         623          1.0000000000
      1870       624  TIP3  OH2          -9.0229208764       -1.6734931742       -4.0737215688  CLST         624          1.0000000000
      1871       624  TIP3  H1           -8.3817516444       -1.1990142480       -4.6924057935  CLST         624          1.0000000000
      1872       624  TIP3  H2           -9.8466315612       -1.1850409252       -4.1094263936  CLST         624          1.0000000000
      1873       625  TIP3  OH2          -9.5933644368      -13.1658827595       -9.0385780733  CLST         625          1.0000000000
      1874       625  TIP3  H1           -9.7346620508      -12.2822750334       -8.6870093874  CLST         625          1.0000000000
      1875       625  TIP3  H2           -9.2851822517      -13.6762500801       -8.2888857943  CLST         625          1.0000000000
      1876       626  TIP3  OH2          13.4888072921       -5.6406209435       -2.7280255343  CLST         626          1.0000000000
      1877       626  TIP3  H1           13.0271024079       -6.1280870135       -3.4102442356  CLST         626          1.0000000000
      1878       626  TIP3  H2           14.1090630721       -5.1489156503       -3.3611757549  CLST         626          1.0000000000
      1879       627  TIP3  OH2          -0.9329820804      -11.4795190258        7.8476748322  CLST         627          1.0000000000
      1880       627  TIP3  H1           -0.0702904328      -11.4155269991        8.3464124918  CLST         627          1.0000000000
      1881       627  TIP3  H2           -1.0317678883      -12.3963690773        7.8545511036  CLST         627          1.0000000000
      1882       628  TIP3  OH2           7.0930429217        8.8636362340       -8.8945558942  CLST         628          1.0000000000
      1883       628  TIP3  H1            6.9111451728        9.6004869447       -9.5085129203  CLST         628          1.0000000000
      1884       628  TIP3  H2            6.7109212679        9.3522335692       -8.1523507128  CLST         628          1.0000000000
      1885       629  TIP3  OH2          -9.7578483646       -0.1528907947       -9.8184770305  CLST         629          1.0000000000
      1886       629  TIP3  H1           -8.8386125867       -0.1220171412      -10.1369995464  CLST         629          1.0000000000
      1887       629  TIP3  H2           -9.9054183451       -1.0905509270       -9.6905542018  CLST         629          1.0000000000
      1888       630  TIP3  OH2          11.7106226400       12.2796788831       11.5097462027  CLST         630          1.0000000000
      1889       630  TIP3  H1           10.9118473497       12.7926707999       11.2073853355  CLST         630          1.0000000000
      1890       630  TIP3  H2           11.2951870839       11.6063987045       11.9879174583  CLST         630          1.0000000000
      1891       631  TIP3  OH2         -12.3177354041      -11.3902086593      -11.5826124737  CLST         631          1.0000000000
      1892       631  TIP3  H1          -12.3240310728      -11.3947896389      -12.5576742354  CLST         631          1.0000000000
      1893       631  TIP3  H2          -12.9834295491      -12.0481426225      -11.3897729487  CLST         631          1.0000000000
      1894       632  TIP3  OH2          11.0495069624        1.9398725950        9.4411204640  CLST         632          1.0000000000
      1895       632  TIP3  H1           12.0286752445        1.8830686086        9.3569218716  CLST         632          1.0000000000
      1896       632  TIP3  H2           10.8005019420        1.7425678725        8.5307492851  CLST         632          1.0000000000
      1897       633  TIP3  OH2          -4.4779110757        6.4033174236       10.5072798848  CLST         633          1.0000000000
      1898       633  TIP3  H1           -4.2056737902        5.4921122515       10.5965094235  CLST         633          1.0000000000
      1899       633  TIP3  H2           -5.4696979825        6.2535003540       10.3163986874  CLST         633          1.0000000000
      1900       634  TIP3  OH2          -2.4675101477       -7.1669567640        6.8034260737  CLST         634          1.0000000000
      1901       634  TIP3  H1           -2.6428796596       -8.0049553521        7.3647296282  CLST         634          1.0000000000
      1902       634  TIP3  H2           -1.8700849631       -6.6599585472        7.3300345331  CLST         634          1.0000000000
      1903       635  TIP3  OH2           2.7746838769        2.7348459610       -2.2541211306  CLST         635          1.0000000000
      1904       635  TIP3  H1            2.4703121013        3.5953456288       -2.5689062023  CLST         635          1.0000000000
      1905       635  TIP3  H2            2.4695882933        2.1239608837       -2.9079161549  CLST         635          1.0000000000
      1906       636  TIP3  OH2           5.0040408961       -2.5250962684      -10.2270403332  CLST         636          1.0000000000
      1907       636  TIP3  H1            4.4544133549       -2.3200745359      -11.0096927059  CLST         636          1.0000000000
      1908       636  TIP3  H2            5.0770879617       -1.6535258331       -9.7983834039  CLST         636          1.0000000000
      1909       637  TIP3  OH2           3.6908914196       11.1301223788      -10.6422535006  CLST         637          1.0000000000
      1910       637  TIP3  H1            4.2782780270       11.8200238920      -10.2402345098  CLST         637          1.0000000000
      1911       637  TIP3  H2            3.6136327142       10.6533135263       -9.7934378157  CLST         637          1.0000000000
      1912       638  TIP3  OH2           8.9137110837      -12.3387824957       -7.2234526698  CLST         638          1.0000000000
      1913       638  TIP3  H1            8.1422389789      -12.7645862857       -7.7248344460  CLST         638          1.0000000000
      1914       638  TIP3  H2            9.4675483610      -12.2107631272       -8.0129947598  CLST         638          1.0000000000
      1915       639  TIP3  OH2           7.4151628772      -13.6511824152       -9.2220112794  CLST         639          1.0000000000
      1916       639  TIP3  H1            6.4003642360      -13.7072278161       -9.3027475816  CLST         639          1.0000000000
      1917       639  TIP3  H2            7.5786056825      -14.4874341473       -9.7162363154  CLST         639          1.0000000000
      1918       640  TIP3  OH2         -10.1193466070       -3.2359143067      -10.1035139722  CLST         640          1.0000000000
      1919       640  TIP3  H1           -9.2040990410       -3.2814237652       -9.6317630363  CLST         640          1.0000000000
      1920       640  TIP3  H2          -10.6851024067       -3.2853808030       -9.3862098334  CLST         640          1.0000000000
      1921       641  TIP3  OH2         -13.8301626355       -2.8145854696      -13.3850841166  CLST         641          1.0000000000
      1922       641  TIP3  H1          -13.8631607841       -3.8116107656      -13.6181838608  CLST         641          1.0000000000
      1923       641  TIP3  H2          -12.8527923764       -2.7419263091      -13.2661985178  CLST         641          1.0000000000
      1924       642  TIP3  OH2          -1.8730882878        1.7397518243       11.0000860369  CLST         642          1.0000000000
      1925       642  TIP3  H1           -1.0858669661        1.3929189717       11.4886719217  CLST         642          1.0000000000
      1926       642  TIP3  H2           -2.6271099820        1.9384725125       11.5649296731  CLST         642          1.0000000000
      1927       643  TIP3  OH2         -14.1034148614       -2.8440942773        3.6953345081  CLST         643          1.0000000000
      1928       643  TIP3  H1          -13.2606337888       -2.3985701683        3.9122373081  CLST         643          1.0000000000
      1929       643  TIP3  H2          -14.7496017241       -2.3768927551        4.2450609889  CLST         643          1.0000000000
      1930       644  TIP3  OH2          12.7593700719       -2.9126511845        1.2196495193  CLST         644          1.0000000000
      1931       644  TIP3  H1           13.5750804512       -2.3812606460        1.3494919474  CLST         644          1.0000000000
      1932       644  TIP3  H2           13.0169389268       -3.4571545467        0.4856091910  CLST         644          1.0000000000
      1933       645  TIP3  OH2          -6.8372674790        6.2015566539        8.9466624808  CLST         645          1.0000000000
      1934       645  TIP3  H1           -7.0117544154        6.4013207263        8.0266227833  CLST         645          1.0000000000
      1935       645  TIP3  H2           -6.6970443133        5.2714036801        8.8597187954  CLST         645          1.0000000000
      1936       646  TIP3  OH2           7.1449400379      -11.4885729288       11.9615991951  CLST         646          1.0000000000
      1937       646  TIP3  H1            6.2693148572      -11.5551641871       11.4950264816  CLST         646          1.0000000000
      1938       646  TIP3  H2            7.3989978765      -12.4191321916       11.9939463520  CLST         646          1.0000000000
      1939       647  TIP3  OH2         -13.2648342692       -9.3061861682       -7.6049581670  CLST         647          1.0000000000
      1940       647  TIP3  H1          -13.8511639391       -9.8633340705       -7.0192619590  CLST         647          1.0000000000
      1941       647  TIP3  H2          -12.5431820898       -9.1898776535       -6.9515544630  CLST         647          1.0000000000
      1942       648  TIP3  OH2         -13.9772883629        3.5165253500       -6.2612847596  CLST         648          1.0000000000
      1943       648  TIP3  H1          -14.8578802612        3.7048994247       -5.9599992589  CLST         648          1.0000000000
      1944       648  TIP3  H2          -13.5658810123        3.7451194435       -5.4087891580  CLST         648          1.0000000000
      1945       649  TIP3  OH2          -1.6100958934       -3.6055718856       -7.3375142120  CLST         649          1.0000000000
      1946       649  TIP3  H1           -0.9492868728       -2.9014131954       -7.1684112099  CLST         649          1.0000000000
      1947       649  TIP3  H2           -1.1026760795       -4.0880716844       -8.0303267016  CLST         649          1.0000000000
      1948       650  TIP3  OH2          -4.3897268474       -3.3350236816      -11.8405750166  CLST         650          1.0000000000
      1949       650  TIP3  H1           -3.4894826175       -3.2668635410      -12.2040971997  CLST         650          1.0000000000
      1950       650  TIP3  H2           -4.5338938058       -2.4181238328      -11.6224364840  CLST         650          1.0000000000
      1951       651  TIP3  OH2           0.9342169603       -4.3108861401       14.8915531831  CLST         651          1.0000000000
      1952       651  TIP3  H1            0.2538217353       -4.7246724662       14.3003494309  CLST         651          1.0000000000
      1953       651  TIP3  H2            0.5993013525       -4.6820385178       15.7706924434  CLST         651          1.0000000000
      1954       652  TIP3  OH2           2.2157558048       -9.1503809175       10.1424254711  CLST         652          1.0000000000
      1955       652  TIP3  H1            2.5558337152       -8.5870839963       10.8573584481  CLST         652          1.0000000000
      1956       652  TIP3  H2            1.8837339679       -8.3804683154        9.5957860117  CLST         652          1.0000000000
      1957       653  TIP3  OH2          13.4676829685        0.9675122182       -2.5735506845  CLST         653          1.0000000000
      1958       653  TIP3  H1           12.5154028799        0.8287963626       -2.3611754582  CLST         653          1.0000000000
      1959       653  TIP3  H2           13.4255152491        1.3005135209       -3.4966364673  CLST         653          1.0000000000
      1960       654  TIP3  OH2          -5.7294956721        9.2257997799       13.1643056956  CLST         654          1.0000000000
      1961       654  TIP3  H1           -4.8966752819        9.5540502170       13.5422066624  CLST         654          1.0000000000
      1962       654  TIP3  H2           -5.4130828005        8.7036137763       12.3768500142  CLST         654          1.0000000000
      1963       655  TIP3  OH2          -4.2812317399        1.3828557399       12.6901968268  CLST         655          1.0000000000
      1964       655  TIP3  H1           -4.2776628165        0.4357061824       12.3755770384  CLST         655          1.0000000000
      1965       655  TIP3  H2           -5.2588420267        1.3892002537       12.8928756770  CLST         655          1.0000000000
      1966       656  TIP3  OH2         -14.2084931718       -4.5118646209      -10.7217251512  CLST         656          1.0000000000
      1967       656  TIP3  H1          -15.0195149695       -3.9498095591      -10.8793382165  CLST         656          1.0000000000
      1968       656  TIP3  H2          -14.1362168425       -5.0711134453      -11.5127489336  CLST         656          1.0000000000
      1969       657  TIP3  OH2           4.4653495666       -0.8286952619        5.4441437221  CLST         657          1.0000000000
      1970       657  TIP3  H1            5.1014025837       -0.6833624664        6.1719723185  CLST         657          1.0000000000
      1971       657  TIP3  H2            3.9575118422       -0.0300469646        5.4655772274  CLST         657          1.0000000000
      1972       658  TIP3  OH2         -13.9469959187       -7.2811414751       -4.8134222984  CLST         658          1.0000000000
      1973       658  TIP3  H1          -13.5701293482       -6.5534520322       -5.2985692570  CLST         658          1.0000000000
      1974       658  TIP3  H2          -14.8789379740       -7.1467910297       -5.1614504996  CLST         658          1.0000000000
      1975       659  TIP3  OH2           9.1151970058      -13.2038202062        9.8468226911  CLST         659          1.0000000000
      1976       659  TIP3  H1            8.9086192526      -12.5521401116        9.1688116107  CLST         659          1.0000000000
      1977       659  TIP3  H2            8.2717845372      -13.6295074664        9.9490783911  CLST         659          1.0000000000
      1978       660  TIP3  OH2         -14.5336994810       -9.0983728699        6.5237668308  CLST         660          1.0000000000
      1979       660  TIP3  H1          -14.9451012718       -9.8977819915        6.8720663480  CLST         660          1.0000000000
      1980       660  TIP3  H2          -13.8492066015       -8.9494657862        7.2270555546  CLST         660          1.0000000000
      1981       661  TIP3  OH2           2.9903673477        1.1224203981       -4.7900990904  CLST         661          1.0000000000
      1982       661  TIP3  H1            2.7136935272        2.0357411162       -5.0021082147  CLST         661          1.0000000000
      1983       661  TIP3  H2            2.1344251581        0.6788725195       -4.7464292575  CLST         661          1.0000000000
      1984       662  TIP3  OH2          -8.7314642240       -5.1260209482        1.1212749064  CLST         662          1.0000000000
      1985       662  TIP3  H1           -9.2394169379       -5.6509150293        0.4739474544  CLST         662          1.0000000000
      1986       662  TIP3  H2           -9.0138039833       -4.2094158704        1.0198075803  CLST         662          1.0000000000
      1987       663  TIP3  OH2           6.2493137445       -2.0931238328        3.4685138623  CLST         663          1.0000000000
      1988       663  TIP3  H1            5.6250606627       -1.7178344304        4.1155481186  CLST         663          1.0000000000
      1989       663  TIP3  H2            5.9765211376       -3.0247546093        3.3692732507  CLST         663          1.0000000000
      1990       664  TIP3  OH2          10.4424052128      -14.6539234688        2.5641942213  CLST         664          1.0000000000
      1991       664  TIP3  H1           10.2844308292      -14.0182700395        3.2377820462  CLST         664          1.0000000000
      1992       664  TIP3  H2           10.3394057866      -15.4638031691        3.1131550372  CLST         664          1.0000000000
      1993       665  TIP3  OH2           9.7672614491       10.3381659251      -13.9525781688  CLST         665          1.0000000000
      1994       665  TIP3  H1            9.1023471673        9.6532802944      -13.8164459117  CLST         665          1.0000000000
      1995       665  TIP3  H2            9.3611800431       10.8657683225      -14.7147525114  CLST         665          1.0000000000
      1996       666  TIP3  OH2         -11.4105310222       -7.4581559319       -9.0096332761  CLST         666          1.0000000000
      1997       666  TIP3  H1          -11.2911749734       -6.7196795928       -8.4112052269  CLST         666          1.0000000000
      1998       666  TIP3  H2          -12.1776961566       -7.8641185956       -8.5777302803  CLST         666          1.0000000000
      1999       667  TIP3  OH2         -11.0672340528        5.3823588521        7.7564504831  CLST         667          1.0000000000
      2000       667  TIP3  H1          -11.3490482875        4.8524411979        8.5497063684  CLST         667          1.0000000000
      2001       667  TIP3  H2          -10.6486582915        6.1805718276        8.2417691868  CLST         667          1.0000000000
      2002       668  TIP3  OH2         -12.6694315246       -0.0510581045        0.1454648010  CLST         668          1.0000000000
      2003       668  TIP3  H1          -12.9226508211        0.4196885801        0.9519697863  CLST         668          1.0000000000
      2004       668  TIP3  H2          -13.1103523376        0.5187248292       -0.4887810786  CLST         668          1.0000000000
      2005       669  TIP3  OH2          -3.6570306596      -11.4489035358        5.1405896321  CLST         669          1.0000000000
      2006       669  TIP3  H1           -4.0401402964      -12.1653685946        4.5596007960  CLST         669          1.0000000000
      2007       669  TIP3  H2           -3.5799385543      -10.6390971588        4.5119569082  CLST         669          1.0000000000
      2008       670  TIP3  OH2          -6.2805224254       -2.2685839927        1.1717595785  CLST         670          1.0000000000
      2009       670  TIP3  H1           -6.9217076018       -1.5836298405        1.3753918016  CLST         670          1.0000000000
      2010       670  TIP3  H2           -5.9948603842       -1.9280169101        0.2650006349  CLST         670          1.0000000000
      2011       671  TIP3  OH2           3.9681067100       -9.4114291856      -11.0432964626  CLST         671          1.0000000000
      2012       671  TIP3  H1            3.5322813698       -9.2587186457      -10.1385803845  CLST         671          1.0000000000
      2013       671  TIP3  H2            4.9052383981       -9.2685770338      -11.0016991681  CLST         671          1.0000000000
      2014       672  TIP3  OH2          12.1017638778      -12.5811268905        9.0584544373  CLST         672          1.0000000000
      2015       672  TIP3  H1           11.2273795213      -12.9178882566        9.3289911003  CLST         672          1.0000000000
      2016       672  TIP3  H2           12.6487307008      -12.9468410723        9.7613495528  CLST         672          1.0000000000
      2017       673  TIP3  OH2           6.9547139040       -4.3021515134        6.8006844961  CLST         673          1.0000000000
      2018       673  TIP3  H1            7.5342976373       -3.5409357256        6.8210454286  CLST         673          1.0000000000
      2019       673  TIP3  H2            7.5595770481       -4.9238964557        7.2687684009  CLST         673          1.0000000000
      2020       674  TIP3  OH2          -4.1708343959       -0.6660263813        2.8905927625  CLST         674          1.0000000000
      2021       674  TIP3  H1           -3.4382782116       -1.0059030753        3.3372005988  CLST         674          1.0000000000
      2022       674  TIP3  H2           -4.3272022410       -1.3951720459        2.2428247566  CLST         674          1.0000000000
      2023       675  TIP3  OH2          -9.5727206660        2.4381717300       -3.2492092433  CLST         675          1.0000000000
      2024       675  TIP3  H1           -8.9281129159        1.7085393799       -3.3217496474  CLST         675          1.0000000000
      2025       675  TIP3  H2          -10.2059868368        2.1890426667       -2.5573472255  CLST         675          1.0000000000
      2026       676  TIP3  OH2         -13.6854913688        0.0185259695      -13.6366867908  CLST         676          1.0000000000
      2027       676  TIP3  H1          -13.8417327843       -0.9415703593      -13.4948634365  CLST         676          1.0000000000
      2028       676  TIP3  H2          -13.3549289317        0.2926201367      -12.7867406519  CLST         676          1.0000000000
      2029       677  TIP3  OH2           1.6413803745      -12.0537095612        2.2528127201  CLST         677          1.0000000000
      2030       677  TIP3  H1            1.9192814088      -12.2000607710        1.3687999888  CLST         677          1.0000000000
      2031       677  TIP3  H2            1.2265586076      -12.9138063034        2.4690543460  CLST         677          1.0000000000
      2032       678  TIP3  OH2          11.4951423721       -6.9574093020       -8.3828863704  CLST         678          1.0000000000
      2033       678  TIP3  H1           12.4274524205       -7.2740227241       -8.4623599191  CLST         678          1.0000000000
      2034       678  TIP3  H2           11.4414692476       -6.3330156069       -9.0800147145  CLST         678          1.0000000000
      2035       679  TIP3  OH2           7.4843375057       -9.8514781713      -14.4043669339  CLST         679          1.0000000000
      2036       679  TIP3  H1            7.4294417634       -9.2060529435      -15.0482466077  CLST         679          1.0000000000
      2037       679  TIP3  H2            6.5050974401       -9.9087509225      -14.2532630648  CLST         679          1.0000000000
      2038       680  TIP3  OH2           9.8268697140       -8.4836785829       -1.7071569767  CLST         680          1.0000000000
      2039       680  TIP3  H1            9.9934696126       -9.4526105504       -1.7836226353  CLST         680          1.0000000000
      2040       680  TIP3  H2            9.4077412625       -8.4343304425       -2.5485071172  CLST         680          1.0000000000
      2041       681  TIP3  OH2           7.4219625142        9.3789082838       11.0595874861  CLST         681          1.0000000000
      2042       681  TIP3  H1            7.4677304771        8.4325015764       11.0879997468  CLST         681          1.0000000000
      2043       681  TIP3  H2            8.4279839200        9.5170807989       11.0588218909  CLST         681          1.0000000000
      2044       682  TIP3  OH2           7.8687345912       14.0351178790        1.6917621783  CLST         682          1.0000000000
      2045       682  TIP3  H1            7.1552417153       13.8778948954        1.1151193731  CLST         682          1.0000000000
      2046       682  TIP3  H2            7.5975186805       14.8805766389        2.0842298104  CLST         682          1.0000000000
      2047       683  TIP3  OH2           3.3524145223       11.5278520154      -15.0450988552  CLST         683          1.0000000000
      2048       683  TIP3  H1            3.2344553782       11.8674447533      -14.1191249581  CLST         683          1.0000000000
      2049       683  TIP3  H2            3.1593720408       10.5995199130      -14.9371487741  CLST         683          1.0000000000
      2050       684  TIP3  OH2          12.7267369647        2.8057888583      -12.3675559242  CLST         684          1.0000000000
      2051       684  TIP3  H1           12.3545324465        2.0119578848      -11.8670125221  CLST         684          1.0000000000
      2052       684  TIP3  H2           13.3166410938        3.1947201254      -11.7267626015  CLST         684          1.0000000000
      2053       685  TIP3  OH2           3.7609303933       13.4424827215        2.1114444778  CLST         685          1.0000000000
      2054       685  TIP3  H1            4.1912300865       12.4972487140        1.9449466601  CLST         685          1.0000000000
      2055       685  TIP3  H2            2.8773180626       13.2055872246        1.9706474102  CLST         685          1.0000000000
      2056       686  TIP3  OH2          -1.9520211738      -11.7827454475       -5.6241985936  CLST         686          1.0000000000
      2057       686  TIP3  H1           -1.7958621941      -12.1854683994       -4.7317886463  CLST         686          1.0000000000
      2058       686  TIP3  H2           -2.3757604147      -12.5725307266       -6.1436022949  CLST         686          1.0000000000
      2059       687  TIP3  OH2           2.2648113041       11.0907282412       -5.4738695156  CLST         687          1.0000000000
      2060       687  TIP3  H1            1.8031600779       10.9612744857       -4.5791960099  CLST         687          1.0000000000
      2061       687  TIP3  H2            2.9481843814       11.6780801823       -5.2139548198  CLST         687          1.0000000000
      2062       688  TIP3  OH2          -4.7876753901       -1.0073521598      -10.2815397190  CLST         688          1.0000000000
      2063       688  TIP3  H1           -4.5369157694       -0.7350255786       -9.3741328237  CLST         688          1.0000000000
      2064       688  TIP3  H2           -3.9945457652       -0.7699174936      -10.7782514206  CLST         688          1.0000000000
      2065       689  TIP3  OH2         -11.7776419628       -2.5927826014       -7.4166711358  CLST         689          1.0000000000
      2066       689  TIP3  H1          -12.3894335050       -2.3848441526       -6.6399617929  CLST         689          1.0000000000
      2067       689  TIP3  H2          -12.1735077252       -2.0027632347       -8.0663583694  CLST         689          1.0000000000
      2068       690  TIP3  OH2           9.1654012692      -12.4616752638        3.9843222638  CLST         690          1.0000000000
      2069       690  TIP3  H1            9.4069227617      -12.2224361159        4.8757802585  CLST         690          1.0000000000
      2070       690  TIP3  H2            9.6650522478      -11.6868979798        3.5434764459  CLST         690          1.0000000000
      2071       691  TIP3  OH2          -0.9880354089       10.1055995194       13.7638460273  CLST         691          1.0000000000
      2072       691  TIP3  H1           -0.4815984658       10.8839744609       13.4256969351  CLST         691          1.0000000000
      2073       691  TIP3  H2           -0.3700156909       10.0525634330       14.5163396275  CLST         691          1.0000000000
      2074       692  TIP3  OH2           1.5419850340       -6.7806267654        8.7376471959  CLST         692          1.0000000000
      2075       692  TIP3  H1            0.5966968058       -6.5433751018        8.7470704025  CLST         692          1.0000000000
      2076       692  TIP3  H2            1.7832269454       -5.8748934414        9.0159419610  CLST         692          1.0000000000
      2077       693  TIP3  OH2          -9.1943704405       -4.2076739467       -2.8537572359  CLST         693          1.0000000000
      2078       693  TIP3  H1           -8.4342727993       -4.2483769512       -2.2308882774  CLST         693          1.0000000000
      2079       693  TIP3  H2           -9.0773141787       -3.4348353549       -3.3097867084  CLST         693          1.0000000000
      2080       694  TIP3  OH2          -1.6397391443       11.6267947861        5.7249718902  CLST         694          1.0000000000
      2081       694  TIP3  H1           -2.3462227159       12.1754630082        5.3237485319  CLST         694          1.0000000000
      2082       694  TIP3  H2           -0.9982482384       12.2838866952        5.8358751998  CLST         694          1.0000000000
      2083       695  TIP3  OH2           1.7621007617       10.3885197352        7.5835155116  CLST         695          1.0000000000
      2084       695  TIP3  H1            1.1946025578       10.1290678319        6.8180199728  CLST         695          1.0000000000
      2085       695  TIP3  H2            1.2011515185       10.3109571295        8.3838837294  CLST         695          1.0000000000
      2086       696  TIP3  OH2          -4.2984520080        3.1562066023       -6.1279379057  CLST         696          1.0000000000
      2087       696  TIP3  H1           -3.6941372861        3.9210914055       -6.1912494301  CLST         696          1.0000000000
      2088       696  TIP3  H2           -4.6357660484        3.1598934666       -5.2782457194  CLST         696          1.0000000000
      2089       697  TIP3  OH2           2.6511140986        5.5635896809       11.9571700197  CLST         697          1.0000000000
      2090       697  TIP3  H1            1.9859501570        5.5679054987       11.2040614945  CLST         697          1.0000000000
      2091       697  TIP3  H2            3.5273103287        5.6537230197       11.4768022512  CLST         697          1.0000000000
      2092       698  TIP3  OH2          -3.4886068331        5.0575293592       -1.1635222454  CLST         698          1.0000000000
      2093       698  TIP3  H1           -3.5864739030        4.1046431621       -1.4378389062  CLST         698          1.0000000000
      2094       698  TIP3  H2           -4.4230912723        5.4006487644       -1.1487577447  CLST         698          1.0000000000
      2095       699  TIP3  OH2          -1.3296821132       -4.6569991084        3.5400291585  CLST         699          1.0000000000
      2096       699  TIP3  H1           -2.2064710734       -4.2296626804        3.5776091290  CLST         699          1.0000000000
      2097       699  TIP3  H2           -1.0598734136       -4.7570599511        2.5962465814  CLST         699          1.0000000000
      2098       700  TIP3  OH2          -5.1690720648       -8.3245191057        8.9811675833  CLST         700          1.0000000000
      2099       700  TIP3  H1           -5.3147194580       -7.7752076633        8.1785703050  CLST         700          1.0000000000
      2100       700  TIP3  H2           -4.3257856657       -8.6789756777        8.7648608182  CLST         700          1.0000000000
      2101       701  TIP3  OH2         -14.0602132163       10.3589903514        0.0694200245  CLST         701          1.0000000000
      2102       701  TIP3  H1          -13.9433365277        9.5340357947       -0.4823307153  CLST         701          1.0000000000
      2103       701  TIP3  H2          -15.0288340991       10.3223928438        0.3627836951  CLST         701          1.0000000000
      2104       702  TIP3  OH2          -5.5915994357       -9.5566633159      -12.4836778607  CLST         702          1.0000000000
      2105       702  TIP3  H1           -5.5197286965       -9.8709008097      -11.5486975026  CLST         702          1.0000000000
      2106       702  TIP3  H2           -6.5902339812       -9.5223850713      -12.6003280138  CLST         702          1.0000000000
      2107       703  TIP3  OH2           3.6921690326        6.1065855859       -4.3815744860  CLST         703          1.0000000000
      2108       703  TIP3  H1            2.8833143139        5.5790278339       -4.4013614933  CLST         703          1.0000000000
      2109       703  TIP3  H2            3.3801355124        7.0031268984       -4.1197877108  CLST         703          1.0000000000
      2110       704  TIP3  OH2         -10.0286031841        5.1593190899       11.9139230166  CLST         704          1.0000000000
      2111       704  TIP3  H1           -9.8674561380        5.5838171933       12.7970829925  CLST         704          1.0000000000
      2112       704  TIP3  H2          -10.3498907873        5.9139809969       11.4350721993  CLST         704          1.0000000000
      2113       705  TIP3  OH2          -0.6861347526       -9.0247288065       -7.1262766061  CLST         705          1.0000000000
      2114       705  TIP3  H1           -0.9677712870       -9.9128973879       -7.3827067399  CLST         705          1.0000000000
      2115       705  TIP3  H2           -0.4036507518       -8.6833842278       -7.9985255185  CLST         705          1.0000000000
      2116       706  TIP3  OH2          -1.8438136060       -1.7783400014        4.5646659611  CLST         706          1.0000000000
      2117       706  TIP3  H1           -1.1445508155       -1.1364062408        4.7758558350  CLST         706          1.0000000000
      2118       706  TIP3  H2           -1.2356023101       -2.4694021523        4.2761822857  CLST         706          1.0000000000
      2119       707  TIP3  OH2           8.6812009049       11.0322286106        7.3433999172  CLST         707          1.0000000000
      2120       707  TIP3  H1            8.6098610138       11.4237002388        6.4309685587  CLST         707          1.0000000000
      2121       707  TIP3  H2            7.8058710682       10.5873406708        7.3471321804  CLST         707          1.0000000000
      2122       708  TIP3  OH2          -0.9251663606       -7.7153713250      -12.6296660595  CLST         708          1.0000000000
      2123       708  TIP3  H1           -1.6096446502       -7.9573168123      -13.2426293177  CLST         708          1.0000000000
      2124       708  TIP3  H2           -0.4831987429       -6.9642952406      -13.1238946499  CLST         708          1.0000000000
      2125       709  TIP3  OH2          -6.2893169788       14.4059859658        0.7051946858  CLST         709          1.0000000000
      2126       709  TIP3  H1           -5.4115338474       14.1019397445        0.8291867207  CLST         709          1.0000000000
      2127       709  TIP3  H2           -6.4907843889       14.8350491206        1.5443904240  CLST         709          1.0000000000
      2128       710  TIP3  OH2          -0.7844215568       14.1426231634      -10.8601080288  CLST         710          1.0000000000
      2129       710  TIP3  H1           -0.0104092921       14.2355926793      -11.4078757080  CLST         710          1.0000000000
      2130       710  TIP3  H2           -1.3220997735       13.5305780261      -11.4382083613  CLST         710          1.0000000000
      2131       711  TIP3  OH2          11.9140224337      -12.2868734520      -11.0282063357  CLST         711          1.0000000000
      2132       711  TIP3  H1           11.9230096766      -13.2531876785      -10.8946387461  CLST         711          1.0000000000
      2133       711  TIP3  H2           11.6474847513      -12.2459146240      -11.9676925562  CLST         711          1.0000000000
      2134       712  TIP3  OH2          -3.6716254086      -10.6646900327       11.7621416404  CLST         712          1.0000000000
      2135       712  TIP3  H1           -4.4772017607      -10.3047441027       11.2665254044  CLST         712          1.0000000000
      2136       712  TIP3  H2           -2.9238270111      -10.3804081455       11.2206987340  CLST         712          1.0000000000
      2137       713  TIP3  OH2           7.1414117064        0.0774791623        6.4047561640  CLST         713          1.0000000000
      2138       713  TIP3  H1            7.4778907395        0.1496722895        7.2894119621  CLST         713          1.0000000000
      2139       713  TIP3  H2            7.4966664123       -0.7728909766        6.0648835332  CLST         713          1.0000000000
      2140       714  TIP3  OH2           4.8780857372       12.5691685865        4.4781695002  CLST         714          1.0000000000
      2141       714  TIP3  H1            4.2686003468       12.8429178562        3.8100635936  CLST         714          1.0000000000
      2142       714  TIP3  H2            4.4280479090       12.7269685509        5.2814306872  CLST         714          1.0000000000
      2143       715  TIP3  OH2          -9.0590869364       -9.5195914808        1.7298723148  CLST         715          1.0000000000
      2144       715  TIP3  H1           -9.7243827164       -8.8076157722        1.5961330964  CLST         715          1.0000000000
      2145       715  TIP3  H2           -9.6092372194      -10.0066830006        2.3934100443  CLST         715          1.0000000000
      2146       716  TIP3  OH2         -13.7479213766      -13.6569840004       -0.0258080679  CLST         716          1.0000000000
      2147       716  TIP3  H1          -14.4226013771      -14.3118499657       -0.0582913913  CLST         716          1.0000000000
      2148       716  TIP3  H2          -13.8316510973      -13.0935840933       -0.7867488825  CLST         716          1.0000000000
      2149       717  TIP3  OH2          -6.0865211597      -11.9965410404        2.4059820416  CLST         717          1.0000000000
      2150       717  TIP3  H1           -6.3033732321      -11.3936289636        1.7609905806  CLST         717          1.0000000000
      2151       717  TIP3  H2           -6.7748203509      -12.6316711939        2.1811650876  CLST         717          1.0000000000
      2152       718  TIP3  OH2         -10.9293706022        7.4933937336       13.4244078769  CLST         718          1.0000000000
      2153       718  TIP3  H1          -11.4201269966        8.0896247374       14.0243063259  CLST         718          1.0000000000
      2154       718  TIP3  H2          -10.3870593689        8.1412431048       12.9584219616  CLST         718          1.0000000000
      2155       719  TIP3  OH2          10.5279576666       -7.2532701749        2.9240418784  CLST         719          1.0000000000
      2156       719  TIP3  H1           11.2321713174       -6.7249466863        3.3681651593  CLST         719          1.0000000000
      2157       719  TIP3  H2           10.7611808897       -7.1618473110        1.9736238582  CLST         719          1.0000000000
      2158       720  TIP3  OH2          -4.8838765682       13.2174655327       -8.4029589111  CLST         720          1.0000000000
      2159       720  TIP3  H1           -3.8604194898       13.1802226772       -8.3128491026  CLST         720          1.0000000000
      2160       720  TIP3  H2           -5.0146732627       13.5959801857       -7.4823500473  CLST         720          1.0000000000
      2161       721  TIP3  OH2           3.9610023099       -6.0407035834      -10.0901033488  CLST         721          1.0000000000
      2162       721  TIP3  H1            3.9879641829       -5.9638274131       -9.1066150364  CLST         721          1.0000000000
      2163       721  TIP3  H2            4.8345716692       -6.4240992010      -10.2631628154  CLST         721          1.0000000000
      2164       722  TIP3  OH2          10.2434714996       -2.4474030025        2.1365804989  CLST         722          1.0000000000
      2165       722  TIP3  H1            9.8484629906       -3.1106614280        1.6552789262  CLST         722          1.0000000000
      2166       722  TIP3  H2           11.1510180154       -2.4040599057        1.7165218126  CLST         722          1.0000000000
      2167       723  TIP3  OH2           0.3686298726       13.4108026009        5.9886448235  CLST         723          1.0000000000
      2168       723  TIP3  H1            0.6066628001       14.3104133295        5.5826365278  CLST         723          1.0000000000
      2169       723  TIP3  H2            1.2718880413       13.0506517647        6.0680659405  CLST         723          1.0000000000
      2170       724  TIP3  OH2           8.4229214028       -8.3798410751       -4.0624511494  CLST         724          1.0000000000
      2171       724  TIP3  H1            8.3752634542       -9.1737168343       -4.6811343693  CLST         724          1.0000000000
      2172       724  TIP3  H2            8.1605038151       -7.6536830147       -4.6473755439  CLST         724          1.0000000000
      2173       725  TIP3  OH2          -0.9566327861       -0.1323561678        2.3182998724  CLST         725          1.0000000000
      2174       725  TIP3  H1           -1.5717859193       -0.8696765454        2.4926723859  CLST         725          1.0000000000
      2175       725  TIP3  H2           -1.4875154847        0.4808284887        1.7682733640  CLST         725          1.0000000000
      2176       726  TIP3  OH2         -14.3730269997       10.7296638546        6.0432266745  CLST         726          1.0000000000
      2177       726  TIP3  H1          -15.1941954575       10.8420190806        5.4651746667  CLST         726          1.0000000000
      2178       726  TIP3  H2          -13.9685356237       11.6127719875        5.9475267940  CLST         726          1.0000000000
      2179       727  TIP3  OH2          -4.3205961870      -13.7011771095       -0.4827148587  CLST         727          1.0000000000
      2180       727  TIP3  H1           -4.0431210795      -14.0960060028        0.3508216302  CLST         727          1.0000000000
      2181       727  TIP3  H2           -3.8756835491      -12.8383096269       -0.4327321070  CLST         727          1.0000000000
      2182       728  TIP3  OH2          -8.1016435103        3.0825288618       -0.8081559365  CLST         728          1.0000000000
      2183       728  TIP3  H1           -7.5267836056        2.2460608474       -0.6005448470  CLST         728          1.0000000000
      2184       728  TIP3  H2           -9.0336450325        2.8469239737       -0.9216346049  CLST         728          1.0000000000
      2185       729  TIP3  OH2          10.4928449865      -10.2897380290        2.7660986091  CLST         729          1.0000000000
      2186       729  TIP3  H1           10.6557044498       -9.3569725947        2.7227921410  CLST         729          1.0000000000
      2187       729  TIP3  H2           11.4141856668      -10.6817896858        2.8066552339  CLST         729          1.0000000000
      2188       730  TIP3  OH2          -4.3341929894       10.8928028594       -5.3483657439  CLST         730          1.0000000000
      2189       730  TIP3  H1           -4.0874183439       10.1062953344       -5.8813522370  CLST         730          1.0000000000
      2190       730  TIP3  H2           -5.2233620600       10.9894157372       -5.8006511422  CLST         730          1.0000000000
      2191       731  TIP3  OH2          13.1903706619       12.5671729304       -4.5450476893  CLST         731          1.0000000000
      2192       731  TIP3  H1           13.7425305241       13.0324946226       -5.2251763124  CLST         731          1.0000000000
      2193       731  TIP3  H2           12.7867684492       11.8914586313       -5.0416172619  CLST         731          1.0000000000
      2194       732  TIP3  OH2          -2.6717115278       -1.3927772056       -1.9537101517  CLST         732          1.0000000000
      2195       732  TIP3  H1           -3.1581135404       -1.1902411143       -1.1153263927  CLST         732          1.0000000000
      2196       732  TIP3  H2           -3.3816693128       -1.3360582961       -2.6698883419  CLST         732          1.0000000000
      2197       733  TIP3  OH2           5.2464390219        2.5282263934       13.0044755626  CLST         733          1.0000000000
      2198       733  TIP3  H1            5.0761212356        1.7162202466       12.4808816310  CLST         733          1.0000000000
      2199       733  TIP3  H2            4.5015775061        2.4746329139       13.5996374616  CLST         733          1.0000000000
      2200       734  TIP3  OH2           8.5977562931       -2.0674835457        5.8797963555  CLST         734          1.0000000000
      2201       734  TIP3  H1            8.3176620570       -2.6432992529        5.0788429119  CLST         734          1.0000000000
      2202       734  TIP3  H2            9.5407612568       -2.1500558254        5.8005574522  CLST         734          1.0000000000
      2203       735  TIP3  OH2         -10.9227797896      -12.6345078868        1.1179044874  CLST         735          1.0000000000
      2204       735  TIP3  H1          -11.0491317234      -11.9537384132        1.8919953060  CLST         735          1.0000000000
      2205       735  TIP3  H2          -11.8071639929      -12.7954809236        0.7493862449  CLST         735          1.0000000000
      2206       736  TIP3  OH2          13.4120955936        2.4938205153        2.9071922583  CLST         736          1.0000000000
      2207       736  TIP3  H1           13.9238822764        2.7365508043        2.1018112847  CLST         736          1.0000000000
      2208       736  TIP3  H2           12.7945571118        1.9127993560        2.4699703903  CLST         736          1.0000000000
      2209       737  TIP3  OH2          11.5306527939       -2.1035015808        8.0340107138  CLST         737          1.0000000000
      2210       737  TIP3  H1           11.2389004331       -2.1867056059        7.1013309285  CLST         737          1.0000000000
      2211       737  TIP3  H2           11.7411994502       -1.1549619571        7.9585008481  CLST         737          1.0000000000
      2212       738  TIP3  OH2          10.4572693505        1.1332063782       14.1973230470  CLST         738          1.0000000000
      2213       738  TIP3  H1            9.5661708060        1.0413280377       14.5108048304  CLST         738          1.0000000000
      2214       738  TIP3  H2           10.6484760850        0.2317268074       14.3648454456  CLST         738          1.0000000000
      2215       739  TIP3  OH2         -13.5830061485        1.4715020708       10.2886892444  CLST         739          1.0000000000
      2216       739  TIP3  H1          -14.2910408768        1.7221217900       10.9126320495  CLST         739          1.0000000000
      2217       739  TIP3  H2          -14.0145431974        0.7648512762        9.7542904029  CLST         739          1.0000000000
      2218       740  TIP3  OH2           6.2127004451      -14.4752846963       -4.9311369191  CLST         740          1.0000000000
      2219       740  TIP3  H1            5.4805989620      -14.8421928930       -5.4198068735  CLST         740          1.0000000000
      2220       740  TIP3  H2            7.0203650531      -14.8008701235       -5.3599284636  CLST         740          1.0000000000
      2221       741  TIP3  OH2          11.6307211188        5.1081460638        9.3566537198  CLST         741          1.0000000000
      2222       741  TIP3  H1           12.5227325424        5.3556540157        9.6567041930  CLST         741          1.0000000000
      2223       741  TIP3  H2           11.6560125375        4.1298133353        9.3431698990  CLST         741          1.0000000000
      2224       742  TIP3  OH2           8.2750947653       -9.7030153718       -6.3169700108  CLST         742          1.0000000000
      2225       742  TIP3  H1            8.5478045091      -10.6086056950       -6.4191511141  CLST         742          1.0000000000
      2226       742  TIP3  H2            7.6984048832       -9.7317786747       -7.0635736635  CLST         742          1.0000000000
      2227       743  TIP3  OH2          -7.3390086387       -0.3283388367      -10.8659004840  CLST         743          1.0000000000
      2228       743  TIP3  H1           -7.0500034837        0.5924722174      -10.8153894348  CLST         743          1.0000000000
      2229       743  TIP3  H2           -6.4633690845       -0.7943059008      -10.8569967967  CLST         743          1.0000000000
      2230       744  TIP3  OH2          -6.2448123705        3.5595533496        5.4935332748  CLST         744          1.0000000000
      2231       744  TIP3  H1           -5.3734569480        3.1973043006        5.5530750454  CLST         744          1.0000000000
      2232       744  TIP3  H2           -6.0777758733        4.4642836876        5.7516492549  CLST         744          1.0000000000
      2233       745  TIP3  OH2           0.2839363669       -8.4123564531        6.8417348651  CLST         745          1.0000000000
      2234       745  TIP3  H1            0.7659150096       -9.2542861828        7.0817086503  CLST         745          1.0000000000
      2235       745  TIP3  H2            0.2426770688       -7.9611877845        7.7217662786  CLST         745          1.0000000000
      2236       746  TIP3  OH2          -7.6980802710       -4.5975759524       -5.9519136986  CLST         746          1.0000000000
      2237       746  TIP3  H1           -7.8522484552       -5.4224112058       -6.4661969164  CLST         746          1.0000000000
      2238       746  TIP3  H2           -8.1663912096       -3.9499720990       -6.4962148998  CLST         746          1.0000000000
      2239       747  TIP3  OH2          11.3729962154       12.0103277737        2.2249757716  CLST         747          1.0000000000
      2240       747  TIP3  H1           10.6190267844       12.5154488854        2.5973803812  CLST         747          1.0000000000
      2241       747  TIP3  H2           11.5778544087       11.5289238403        3.0222248706  CLST         747          1.0000000000
      2242       748  TIP3  OH2           3.6711297092        4.9919972348        8.6388721506  CLST         748          1.0000000000
      2243       748  TIP3  H1            4.2873270915        5.0684153703        9.4206694280  CLST         748          1.0000000000
      2244       748  TIP3  H2            3.7255978569        5.8365396434        8.2147904158  CLST         748          1.0000000000
      2245       749  TIP3  OH2          10.9983735175        9.4549057815        6.3825810229  CLST         749          1.0000000000
      2246       749  TIP3  H1           10.8910569978        8.7047602286        6.9504826532  CLST         749          1.0000000000
      2247       749  TIP3  H2           10.7001231361       10.2730499409        6.9110153689  CLST         749          1.0000000000
      2248       750  TIP3  OH2         -14.4406956658       12.3279033868       -7.6351666373  CLST         750          1.0000000000
      2249       750  TIP3  H1          -15.2666833369       12.0358656161       -7.9475962249  CLST         750          1.0000000000
      2250       750  TIP3  H2          -13.8822339887       11.8870431978       -8.2929238598  CLST         750          1.0000000000
      2251       751  TIP3  OH2           8.5488519067        4.3843614012       -4.3591613016  CLST         751          1.0000000000
      2252       751  TIP3  H1            7.8949684887        3.7338163375       -4.6816588393  CLST         751          1.0000000000
      2253       751  TIP3  H2            9.0316153397        3.8056452122       -3.6888853902  CLST         751          1.0000000000
      2254       752  TIP3  OH2         -12.2297824871       13.2467686640        2.3399138510  CLST         752          1.0000000000
      2255       752  TIP3  H1          -12.5241678694       13.2134845542        1.4603810389  CLST         752          1.0000000000
      2256       752  TIP3  H2          -12.3679194565       12.3657913265        2.5915586384  CLST         752          1.0000000000
      2257       753  TIP3  OH2           8.5208871145        2.5415980413       -7.1217403371  CLST         753          1.0000000000
      2258       753  TIP3  H1            8.2493385632        3.4003131839       -7.5592500249  CLST         753          1.0000000000
      2259       753  TIP3  H2            7.7977345634        2.3794582915       -6.4426363135  CLST         753          1.0000000000
      2260       754  TIP3  OH2          11.3599341382        2.3715866916       -6.0975190774  CLST         754          1.0000000000
      2261       754  TIP3  H1           11.2461114682        2.5522752969       -5.1430054614  CLST         754          1.0000000000
      2262       754  TIP3  H2           10.4228158842        2.4365719445       -6.3813840761  CLST         754          1.0000000000
      2263       755  TIP3  OH2           7.5221834226       -1.6982323418       -0.1576436722  CLST         755          1.0000000000
      2264       755  TIP3  H1            6.5847024066       -1.9068700285       -0.0426857629  CLST         755          1.0000000000
      2265       755  TIP3  H2            7.4767296846       -0.7063430581       -0.1028935241  CLST         755          1.0000000000
      2266       756  TIP3  OH2         -12.7808115648        6.4391177271        5.7979487602  CLST         756          1.0000000000
      2267       756  TIP3  H1          -13.4538882753        5.7098547936        5.6081459703  CLST         756          1.0000000000
      2268       756  TIP3  H2          -12.1434415875        6.1828645132        6.5919936365  CLST         756          1.0000000000
      2269       757  TIP3  OH2          -4.6942443821       -5.0426053081       -2.2341099692  CLST         757          1.0000000000
      2270       757  TIP3  H1           -4.1499466575       -5.2841956559       -2.9810873010  CLST         757          1.0000000000
      2271       757  TIP3  H2           -5.3890842651       -4.5602969587       -2.7267457189  CLST         757          1.0000000000
      2272       758  TIP3  OH2          12.1292150248        4.3670130031       -0.9828010303  CLST         758          1.0000000000
      2273       758  TIP3  H1           12.2674407423        4.9739141448       -0.2236770008  CLST         758          1.0000000000
      2274       758  TIP3  H2           12.6727182971        3.6149317738       -0.8087315616  CLST         758          1.0000000000
      2275       759  TIP3  OH2          -7.5931031165       11.7015616915      -11.1688359550  CLST         759          1.0000000000
      2276       759  TIP3  H1           -7.4881987939       11.9119175557      -12.0946386305  CLST         759          1.0000000000
      2277       759  TIP3  H2           -6.7172893761       11.4737231482      -10.9005703689  CLST         759          1.0000000000
      2278       760  TIP3  OH2           8.0620689416       14.4262769085       -6.2514040801  CLST         760          1.0000000000
      2279       760  TIP3  H1            8.5693896866       14.6986302219       -7.0676387344  CLST         760          1.0000000000
      2280       760  TIP3  H2            7.5654463223       13.6329694529       -6.6626774871  CLST         760          1.0000000000
      2281       761  TIP3  OH2          -6.9953770731        8.1031416111      -11.4749268865  CLST         761          1.0000000000
      2282       761  TIP3  H1           -7.8391693963        7.8350802484      -11.7587006257  CLST         761          1.0000000000
      2283       761  TIP3  H2           -7.1195257938        8.1844953606      -10.5236686563  CLST         761          1.0000000000
      2284       762  TIP3  OH2           7.7319346037       -6.1900355177      -12.9937930695  CLST         762          1.0000000000
      2285       762  TIP3  H1            7.1146810129       -6.7898078450      -12.5524792939  CLST         762          1.0000000000
      2286       762  TIP3  H2            7.5667890456       -5.3188611553      -12.5214879785  CLST         762          1.0000000000
      2287       763  TIP3  OH2          -0.9250986826       -6.1876284463        8.9729091029  CLST         763          1.0000000000
      2288       763  TIP3  H1           -1.2106237508       -5.3728684491        8.5723297274  CLST         763          1.0000000000
      2289       763  TIP3  H2           -1.5215844729       -6.2420004686        9.7359511985  CLST         763          1.0000000000
      2290       764  TIP3  OH2           8.9201094560      -11.4824034160        0.8351768659  CLST         764          1.0000000000
      2291       764  TIP3  H1            8.2555609905      -10.7360438239        0.8027106913  CLST         764          1.0000000000
      2292       764  TIP3  H2            9.6789684834      -11.0410608761        1.3366514855  CLST         764          1.0000000000
      2293       765  TIP3  OH2         -14.8791987586      -12.2316143141       13.1861587055  CLST         765          1.0000000000
      2294       765  TIP3  H1          -14.2691888947      -11.8169382102       13.8367959333  CLST         765          1.0000000000
      2295       765  TIP3  H2          -15.2306840851      -11.4881725299       12.6112420425  CLST         765          1.0000000000
      2296       766  TIP3  OH2          11.5559137934       -8.3938776728      -12.0233096799  CLST         766          1.0000000000
      2297       766  TIP3  H1           10.8451059574       -7.9380142977      -12.5243786428  CLST         766          1.0000000000
      2298       766  TIP3  H2           11.1318328895       -9.1490983251      -11.6057039505  CLST         766          1.0000000000
      2299       767  TIP3  OH2           2.2950317008       12.4359851179      -12.6840492284  CLST         767          1.0000000000
      2300       767  TIP3  H1            2.5155142620       11.9762634693      -11.8600705425  CLST         767          1.0000000000
      2301       767  TIP3  H2            2.1925982114       13.4292344431      -12.3943429093  CLST         767          1.0000000000
      2302       768  TIP3  OH2           7.7109153312        7.1175760629        8.5499499145  CLST         768          1.0000000000
      2303       768  TIP3  H1            8.7053749527        7.1304506253        8.4305671777  CLST         768          1.0000000000
      2304       768  TIP3  H2            7.6550751461        6.1421897675        8.5494361294  CLST         768          1.0000000000
      2305       769  TIP3  OH2         -11.8945734160        3.0936286095        1.0420006357  CLST         769          1.0000000000
      2306       769  TIP3  H1          -11.0113526042        3.0262327209        1.4082294095  CLST         769          1.0000000000
      2307       769  TIP3  H2          -12.5257221460        3.2009149143        1.7804113696  CLST         769          1.0000000000
      2308       770  TIP3  OH2          10.2039106991       -4.6751600220       11.3873672375  CLST         770          1.0000000000
      2309       770  TIP3  H1           10.0181311782       -3.7916125250       10.9960665180  CLST         770          1.0000000000
      2310       770  TIP3  H2           11.1106987204       -4.7397736283       11.3735200583  CLST         770          1.0000000000
      2311       771  TIP3  OH2         -10.3877308562        1.1375549000       -5.6772174057  CLST         771          1.0000000000
      2312       771  TIP3  H1           -9.7564818400        0.4565219138       -5.6266187512  CLST         771          1.0000000000
      2313       771  TIP3  H2          -10.2370621049        1.6050290957       -4.8863784938  CLST         771          1.0000000000
      2314       772  TIP3  OH2          13.0339083053      -12.5544663265       -6.7385234636  CLST         772          1.0000000000
      2315       772  TIP3  H1           13.2755943550      -11.6178736598       -6.8717983345  CLST         772          1.0000000000
      2316       772  TIP3  H2           12.4037873514      -12.5367360149       -6.0016442668  CLST         772          1.0000000000
      2317       773  TIP3  OH2          12.1041296025       -4.8219499359        3.5566617405  CLST         773          1.0000000000
      2318       773  TIP3  H1           11.7576402657       -4.2027112639        4.2701677331  CLST         773          1.0000000000
      2319       773  TIP3  H2           12.8312666935       -4.3125497428        3.1367581119  CLST         773          1.0000000000
      2320       774  TIP3  OH2          -7.7199800724       -0.2332397786       -5.9181188247  CLST         774          1.0000000000
      2321       774  TIP3  H1           -6.8494966933       -0.7134600231       -6.0383481221  CLST         774          1.0000000000
      2322       774  TIP3  H2           -7.4127072967        0.7107093567       -5.8015130167  CLST         774          1.0000000000
      2323       775  TIP3  OH2           2.6823937936        1.5763854904        5.3929551874  CLST         775          1.0000000000
      2324       775  TIP3  H1            2.6627188532        1.4356670348        6.3421532856  CLST         775          1.0000000000
      2325       775  TIP3  H2            3.1535493200        2.4669655675        5.3678600638  CLST         775          1.0000000000
      2326       776  TIP3  OH2           0.0537742375        9.5208412807        5.6676093548  CLST         776          1.0000000000
      2327       776  TIP3  H1           -0.6936773584       10.1313787712        5.7180389399  CLST         776          1.0000000000
      2328       776  TIP3  H2           -0.3891198624        8.6921223238        5.4639434918  CLST         776          1.0000000000
      2329       777  TIP3  OH2         -13.0822303474      -10.2270877977        0.1203227068  CLST         777          1.0000000000
      2330       777  TIP3  H1          -12.7865015515       -9.2923579174        0.2656419542  CLST         777          1.0000000000
      2331       777  TIP3  H2          -13.7038304195      -10.4562222096        0.8559052995  CLST         777          1.0000000000
      2332       778  TIP3  OH2         -11.6793674469        5.7324758853       -0.3926020892  CLST         778          1.0000000000
      2333       778  TIP3  H1          -11.5127155078        4.9142978695        0.0704042582  CLST         778          1.0000000000
      2334       778  TIP3  H2          -11.6446160557        5.4475137400       -1.3008164394  CLST         778          1.0000000000
      2335       779  TIP3  OH2          -6.1649304176        5.2813567714       -1.6312192453  CLST         779          1.0000000000
      2336       779  TIP3  H1           -6.9266713520        4.6795488435       -1.4548457648  CLST         779          1.0000000000
      2337       779  TIP3  H2           -6.4653434015        6.1003873042       -1.1516125519  CLST         779          1.0000000000
      2338       780  TIP3  OH2           2.4074176926       13.8875620842       -8.6391034549  CLST         780          1.0000000000
      2339       780  TIP3  H1            2.0810159874       14.6341798339       -9.2138426346  CLST         780          1.0000000000
      2340       780  TIP3  H2            3.2266286307       13.7470339810       -9.0568804860  CLST         780          1.0000000000
      2341       781  TIP3  OH2           8.9869704718       -8.7447922443       -9.6690490790  CLST         781          1.0000000000
      2342       781  TIP3  H1            9.7087346718       -8.2229867160       -9.2900838962  CLST         781          1.0000000000
      2343       781  TIP3  H2            9.2939135672       -9.6545265272       -9.4861679185  CLST         781          1.0000000000
      2344       782  TIP3  OH2           0.1660545095        2.5242383148        4.2549893758  CLST         782          1.0000000000
      2345       782  TIP3  H1           -0.5257819509        1.9747089885        4.7132486917  CLST         782          1.0000000000
      2346       782  TIP3  H2            0.9673737012        2.1572297590        4.6872241406  CLST         782          1.0000000000
      2347       783  TIP3  OH2          -7.1292532426      -12.6600678934      -13.3497066218  CLST         783          1.0000000000
      2348       783  TIP3  H1           -7.8049962913      -12.1623644810      -12.7893355505  CLST         783          1.0000000000
      2349       783  TIP3  H2           -7.6444463111      -12.8808199718      -14.1369474443  CLST         783          1.0000000000
      2350       784  TIP3  OH2          14.6364800608        5.1521593351       -4.0210262799  CLST         784          1.0000000000
      2351       784  TIP3  H1           15.0706308795        5.9460695732       -4.3478657434  CLST         784          1.0000000000
      2352       784  TIP3  H2           13.7290708025        5.3619404542       -4.1508932573  CLST         784          1.0000000000
      2353       785  TIP3  OH2          10.5559285348        8.3852700941        0.8324039598  CLST         785          1.0000000000
      2354       785  TIP3  H1           10.9428410978        8.6772445644        1.6296823411  CLST         785          1.0000000000
      2355       785  TIP3  H2           11.4165723069        8.3304006951        0.3027553770  CLST         785          1.0000000000
      2356       786  TIP3  OH2          12.6960981682        3.5395373765       12.5295049877  CLST         786          1.0000000000
      2357       786  TIP3  H1           13.1145422823        4.2936677895       12.9206537202  CLST         786          1.0000000000
      2358       786  TIP3  H2           11.8412390430        3.4654641813       12.9419601700  CLST         786          1.0000000000
      2359       787  TIP3  OH2          -8.1211033737       -0.0500093766       11.4380414524  CLST         787          1.0000000000
      2360       787  TIP3  H1           -8.7410596852        0.2040677028       10.7610742629  CLST         787          1.0000000000
      2361       787  TIP3  H2           -8.6037720891       -0.7221761841       11.8912864304  CLST         787          1.0000000000
      2362       788  TIP3  OH2           2.4465949198      -13.2736121584       10.8894590964  CLST         788          1.0000000000
      2363       788  TIP3  H1            2.2441025807      -13.4689979311       11.8191991002  CLST         788          1.0000000000
      2364       788  TIP3  H2            3.1776748487      -13.8914447697       10.7867605661  CLST         788          1.0000000000
      2365       789  TIP3  OH2          -6.9603600886        0.9783302067       -3.2800221505  CLST         789          1.0000000000
      2366       789  TIP3  H1           -7.2082558055        0.1736726154       -2.8812003300  CLST         789          1.0000000000
      2367       789  TIP3  H2           -6.0060061382        0.7777603969       -3.3805734153  CLST         789          1.0000000000
      2368       790  TIP3  OH2         -11.2869579283       -9.3611521531        5.6361728674  CLST         790          1.0000000000
      2369       790  TIP3  H1          -11.3036564938       -9.4335980681        6.5838225959  CLST         790          1.0000000000
      2370       790  TIP3  H2          -11.4357891745       -8.4032931726        5.5246196096  CLST         790          1.0000000000
      2371       791  TIP3  OH2          -5.0310815613       -5.7767880256      -10.7006312104  CLST         791          1.0000000000
      2372       791  TIP3  H1           -4.1219658050       -6.0250597582      -10.5698781046  CLST         791          1.0000000000
      2373       791  TIP3  H2           -4.8392803227       -4.9082142543      -11.1341268878  CLST         791          1.0000000000
      2374       792  TIP3  OH2           7.1196339618       -4.0750240675        9.8973880464  CLST         792          1.0000000000
      2375       792  TIP3  H1            7.5593834791       -4.8833476908        9.7244126928  CLST         792          1.0000000000
      2376       792  TIP3  H2            7.8871766443       -3.4937071631        9.8724038468  CLST         792          1.0000000000
      2377       793  TIP3  OH2          -3.0817196624       12.7743014361       -3.7150640365  CLST         793          1.0000000000
      2378       793  TIP3  H1           -3.4937576889       12.6260358053       -2.8892564140  CLST         793          1.0000000000
      2379       793  TIP3  H2           -3.5274767555       12.0090295573       -4.2091185078  CLST         793          1.0000000000
      2380       794  TIP3  OH2          -0.6012934747        2.8840782861       -6.6896511574  CLST         794          1.0000000000
      2381       794  TIP3  H1           -0.8562979103        2.1739450176       -7.2997583199  CLST         794          1.0000000000
      2382       794  TIP3  H2           -0.9980304926        3.6547452930       -7.2078623428  CLST         794          1.0000000000
      2383       795  TIP3  OH2          -2.0244932759       -9.4962343440        1.2380043039  CLST         795          1.0000000000
      2384       795  TIP3  H1           -2.5667306333      -10.2384241346        0.8373392749  CLST         795          1.0000000000
      2385       795  TIP3  H2           -1.6855631299       -9.8861758708        2.0749280595  CLST         795          1.0000000000
      2386       796  TIP3  OH2           2.8344766165        4.6364907710        4.8909360570  CLST         796          1.0000000000
      2387       796  TIP3  H1            2.9991061075        4.5278552760        3.8923195684  CLST         796          1.0000000000
      2388       796  TIP3  H2            3.6190349816        5.1489300552        5.1319115326  CLST         796          1.0000000000
      2389       797  TIP3  OH2         -11.6998615141        5.5331292396       -3.2484479367  CLST         797          1.0000000000
      2390       797  TIP3  H1          -12.1282195365        6.4011991143       -3.5517511177  CLST         797          1.0000000000
      2391       797  TIP3  H2          -11.2107587183        5.2574844775       -4.0405965326  CLST         797          1.0000000000
      2392       798  TIP3  OH2         -11.2595027154        9.8087016816       10.5717828382  CLST         798          1.0000000000
      2393       798  TIP3  H1          -11.3901593348       10.1735953600        9.7043276557  CLST         798          1.0000000000
      2394       798  TIP3  H2          -11.6727637291       10.6260128442       11.0449612409  CLST         798          1.0000000000
      2395       799  TIP3  OH2           3.7452564972       -1.8493889191      -12.7445498724  CLST         799          1.0000000000
      2396       799  TIP3  H1            4.4186143100       -1.1517211580      -12.5647668610  CLST         799          1.0000000000
      2397       799  TIP3  H2            4.0334190400       -2.1248585804      -13.5877438247  CLST         799          1.0000000000
      2398       800  TIP3  OH2         -10.2032606685        7.3042548371       10.2507259945  CLST         800          1.0000000000
      2399       800  TIP3  H1          -10.9155988166        7.9647097267       10.4560716769  CLST         800          1.0000000000
      2400       800  TIP3  H2           -9.4247497337        7.8754792883       10.3995602074  CLST         800          1.0000000000
      2401       801  TIP3  OH2           8.0528689153      -11.1908742875      -10.7529661289  CLST         801          1.0000000000
      2402       801  TIP3  H1            7.8333702093      -12.1229283568      -10.7142587040  CLST         801          1.0000000000
      2403       801  TIP3  H2            8.7051403780      -11.1943722036      -11.4872932424  CLST         801          1.0000000000
      2404       802  TIP3  OH2           5.5477125122       -0.1934803390       11.7612246999  CLST         802          1.0000000000
      2405       802  TIP3  H1            4.8758817476       -0.1830221400       11.0368051014  CLST         802          1.0000000000
      2406       802  TIP3  H2            6.3817851749       -0.3542268729       11.3184761061  CLST         802          1.0000000000
      2407       803  TIP3  OH2           6.5871875712       -9.7029722962        0.1572742689  CLST         803          1.0000000000
      2408       803  TIP3  H1            6.2527606605      -10.5414908429       -0.0691827962  CLST         803          1.0000000000
      2409       803  TIP3  H2            6.0077940223       -9.4273665995        0.8836749787  CLST         803          1.0000000000
      2410       804  TIP3  OH2           5.4003312119        6.2535969059        1.8418114167  CLST         804          1.0000000000
      2411       804  TIP3  H1            4.9137426788        6.1055883704        0.9828464889  CLST         804          1.0000000000
      2412       804  TIP3  H2            6.0719422802        5.5296407216        1.8479274276  CLST         804          1.0000000000
      2413       805  TIP3  OH2           7.4044145621       -4.4148112519       14.3687339770  CLST         805          1.0000000000
      2414       805  TIP3  H1            8.1009856991       -4.3043617811       13.7250478384  CLST         805          1.0000000000
      2415       805  TIP3  H2            7.9342190874       -4.6940410545       15.1274371790  CLST         805          1.0000000000
      2416       806  TIP3  OH2           8.3352717465       10.0032981542       13.7974961627  CLST         806          1.0000000000
      2417       806  TIP3  H1            8.0061743015        9.0381543110       13.9117592594  CLST         806          1.0000000000
      2418       806  TIP3  H2            7.8370559628       10.2804133961       13.0092566432  CLST         806          1.0000000000
      2419       807  TIP3  OH2          -3.7639907142        8.0494916118        1.4457728625  CLST         807          1.0000000000
      2420       807  TIP3  H1           -3.6456203990        9.0173386703        1.5227633274  CLST         807          1.0000000000
      2421       807  TIP3  H2           -3.7453992028        7.7784909776        2.3617194520  CLST         807          1.0000000000
      2422       808  TIP3  OH2          -3.8273073813       13.8661817399        1.1318425828  CLST         808          1.0000000000
      2423       808  TIP3  H1           -3.2036880306       13.9680606737        1.8964236845  CLST         808          1.0000000000
      2424       808  TIP3  H2           -3.1362012394       13.6596226184        0.5182920410  CLST         808          1.0000000000
      2425       809  TIP3  OH2           2.0236067712       12.6923628341        9.4859905063  CLST         809          1.0000000000
      2426       809  TIP3  H1            2.2455407924       11.9171097304        8.9116943577  CLST         809          1.0000000000
      2427       809  TIP3  H2            1.3898363269       13.1717320786        8.9633673389  CLST         809          1.0000000000
      2428       810  TIP3  OH2          -1.8822076483        8.6109742233        8.6803683477  CLST         810          1.0000000000
      2429       810  TIP3  H1           -0.9475162132        8.8188238989        8.5069501297  CLST         810          1.0000000000
      2430       810  TIP3  H2           -1.9351126731        8.1337121745        9.5164666527  CLST         810          1.0000000000
      2431       811  TIP3  OH2          -3.8408170955      -12.4933841370       -9.1530650410  CLST         811          1.0000000000
      2432       811  TIP3  H1           -4.3376479413      -13.0501881318       -9.8542987570  CLST         811          1.0000000000
      2433       811  TIP3  H2           -4.1932459821      -11.5997379257       -9.2806017771  CLST         811          1.0000000000
      2434       812  TIP3  OH2          10.8504845116        4.4380746591      -13.6377382273  CLST         812          1.0000000000
      2435       812  TIP3  H1           11.2202238275        3.5830964644      -13.2999485284  CLST         812          1.0000000000
      2436       812  TIP3  H2           11.6335132143        4.9237247562      -13.9602379312  CLST         812          1.0000000000
      2437       813  TIP3  OH2          -2.3161488143        0.7493175070      -14.0896433202  CLST         813          1.0000000000
      2438       813  TIP3  H1           -2.0243759379        1.5878982739      -14.5552503317  CLST         813          1.0000000000
      2439       813  TIP3  H2           -3.2504502705        0.9056197365      -14.0895038125  CLST         813          1.0000000000
      2440       814  TIP3  OH2          -7.4972960957        8.0286201104       -8.6172818300  CLST         814          1.0000000000
      2441       814  TIP3  H1           -6.7932317574        8.7063090476       -8.4594973627  CLST         814          1.0000000000
      2442       814  TIP3  H2           -6.9936341080        7.2064306776       -8.4912883124  CLST         814          1.0000000000
      2443       815  TIP3  OH2          -5.0521916117        1.3205657477       -8.4714924799  CLST         815          1.0000000000
      2444       815  TIP3  H1           -4.6217550383        2.0850399805       -8.2414697705  CLST         815          1.0000000000
      2445       815  TIP3  H2           -5.8668580520        1.6347292093       -8.8951099198  CLST         815          1.0000000000
      2446       816  TIP3  OH2          -8.2964551325      -13.6455896792        1.7342051640  CLST         816          1.0000000000
      2447       816  TIP3  H1           -8.6553418618      -14.5697387460        1.5954949478  CLST         816          1.0000000000
      2448       816  TIP3  H2           -9.1346026562      -13.1453121619        1.5660765044  CLST         816          1.0000000000
      2449       817  TIP3  OH2           3.5188098959       14.4481364216       10.9819267262  CLST         817          1.0000000000
      2450       817  TIP3  H1            2.9797876608       13.7049637331       10.5303841108  CLST         817          1.0000000000
      2451       817  TIP3  H2            3.2515212743       14.3772402288       11.9212744192  CLST         817          1.0000000000
      2452       818  TIP3  OH2          11.5735729975       -3.3798352722       -5.7705686543  CLST         818          1.0000000000
      2453       818  TIP3  H1           11.6557510235       -2.5340586316       -5.2823422859  CLST         818          1.0000000000
      2454       818  TIP3  H2           10.6390216947       -3.4107277703       -5.9692912255  CLST         818          1.0000000000
      2455       819  TIP3  OH2           0.2058179545        0.0514074236      -10.5855627631  CLST         819          1.0000000000
      2456       819  TIP3  H1            0.3298523187       -0.5975285895      -11.3712219791  CLST         819          1.0000000000
      2457       819  TIP3  H2            1.0993409431        0.5061925695      -10.6913993136  CLST         819          1.0000000000
      2458       820  TIP3  OH2         -11.2560027157       -7.8972274029       14.7490073644  CLST         820          1.0000000000
      2459       820  TIP3  H1          -11.8935696658       -8.3301230180       15.3301577498  CLST         820          1.0000000000
      2460       820  TIP3  H2          -11.1007873212       -8.4382762271       13.9355681096  CLST         820          1.0000000000
      2461       821  TIP3  OH2          12.0273581555       -1.1033763846       14.8099937794  CLST         821          1.0000000000
      2462       821  TIP3  H1           12.7558016463       -0.4962520063       14.6275906656  CLST         821          1.0000000000
      2463       821  TIP3  H2           12.1853104446       -1.8415735626       14.1759057249  CLST         821          1.0000000000
      2464       822  TIP3  OH2          -7.1423544570       14.4658992104        9.3168072065  CLST         822          1.0000000000
      2465       822  TIP3  H1           -7.0841204913       13.9228582068        8.4882796779  CLST         822          1.0000000000
      2466       822  TIP3  H2           -7.0794627448       13.7295907946        9.9486131349  CLST         822          1.0000000000
      2467       823  TIP3  OH2          -9.1339585445       -1.5874329484        7.7171674646  CLST         823          1.0000000000
      2468       823  TIP3  H1           -9.6175105253       -2.4044582768        8.0242913340  CLST         823          1.0000000000
      2469       823  TIP3  H2           -8.2548743497       -1.9130498416        7.7126550653  CLST         823          1.0000000000
      2470       824  TIP3  OH2          10.8112148921        0.6741755093        7.0425056415  CLST         824          1.0000000000
      2471       824  TIP3  H1           11.2122003712        0.3555701979        6.2199313461  CLST         824          1.0000000000
      2472       824  TIP3  H2           10.4107005318        1.5408686015        6.7299004885  CLST         824          1.0000000000
      2473       825  TIP3  OH2          -4.5885208995      -11.6237692027      -13.9830788862  CLST         825          1.0000000000
      2474       825  TIP3  H1           -5.4166796166      -12.2065011354      -13.9550425807  CLST         825          1.0000000000
      2475       825  TIP3  H2           -4.8404892384      -10.9435900095      -13.3404293818  CLST         825          1.0000000000
      2476       826  TIP3  OH2           4.4154977086      -14.1510357820        2.2577626485  CLST         826          1.0000000000
      2477       826  TIP3  H1            4.2604814555      -15.0968966087        2.1619820086  CLST         826          1.0000000000
      2478       826  TIP3  H2            5.2781658836      -14.0634697758        2.6325273207  CLST         826          1.0000000000
      2479       827  TIP3  OH2         -10.0613462945        8.3559093335       -6.5709929869  CLST         827          1.0000000000
      2480       827  TIP3  H1           -9.5022777388        8.5738222699       -5.8357166376  CLST         827          1.0000000000
      2481       827  TIP3  H2           -9.8680291307        7.4113666714       -6.6916899641  CLST         827          1.0000000000
      2482       828  TIP3  OH2          -9.9226631959       -7.6693942472       11.5720619853  CLST         828          1.0000000000
      2483       828  TIP3  H1           -9.0374508056       -7.9387435368       11.5605908684  CLST         828          1.0000000000
      2484       828  TIP3  H2           -9.9469132556       -6.8312250679       11.1882248250  CLST         828          1.0000000000
      2485       829  TIP3  OH2           3.1047676908       13.2428057268        6.4059171294  CLST         829          1.0000000000
      2486       829  TIP3  H1            3.6399240072       13.5841873021        7.1615339196  CLST         829          1.0000000000
      2487       829  TIP3  H2            2.8226098810       14.0429321122        5.8904757004  CLST         829          1.0000000000
      2488       830  TIP3  OH2          13.8977902760        2.8329460202        9.0410571245  CLST         830          1.0000000000
      2489       830  TIP3  H1           14.2710160274        3.4671869432        9.6653257348  CLST         830          1.0000000000
      2490       830  TIP3  H2           14.5462018356        2.9836654879        8.3271502924  CLST         830          1.0000000000
      2491       831  TIP3  OH2           3.0926065588        2.2970566538        8.1435125307  CLST         831          1.0000000000
      2492       831  TIP3  H1            3.3676826780        3.1679308208        8.3727128203  CLST         831          1.0000000000
      2493       831  TIP3  H2            2.1179151720        2.4330776040        7.9933619931  CLST         831          1.0000000000
      2494       832  TIP3  OH2         -12.8914340384       -2.7546549457        1.2095978368  CLST         832          1.0000000000
      2495       832  TIP3  H1          -12.9910342754       -1.9211250205        0.7170204356  CLST         832          1.0000000000
      2496       832  TIP3  H2          -13.2935978402       -2.6063060688        2.0525298551  CLST         832          1.0000000000
      2497       833  TIP3  OH2           1.4745633240      -11.6780754873        5.1971988330  CLST         833          1.0000000000
      2498       833  TIP3  H1            1.6079102292      -10.9469652996        5.8134974538  CLST         833          1.0000000000
      2499       833  TIP3  H2            2.3644103879      -11.8483995986        4.8344811739  CLST         833          1.0000000000
      2500       834  TIP3  OH2           3.5051878482       -3.3240545176        4.2320790487  CLST         834          1.0000000000
      2501       834  TIP3  H1            2.7583159641       -2.8710088712        3.8406283621  CLST         834          1.0000000000
      2502       834  TIP3  H2            3.9609337887       -2.6378575478        4.7827893900  CLST         834          1.0000000000
      2503       835  TIP3  OH2           4.3209185989        2.4666804671        0.1921877970  CLST         835          1.0000000000
      2504       835  TIP3  H1            4.6431891103        2.9197751384       -0.5787017714  CLST         835          1.0000000000
      2505       835  TIP3  H2            4.0368750652        1.5674873116       -0.1231845328  CLST         835          1.0000000000
      2506       836  TIP3  OH2           7.7064765073       -5.8036791684       -9.5521468950  CLST         836          1.0000000000
      2507       836  TIP3  H1            7.2847454201       -6.6358601730       -9.1155123515  CLST         836          1.0000000000
      2508       836  TIP3  H2            8.5754913138       -6.1657522765       -9.6694143658  CLST         836          1.0000000000
      2509       837  TIP3  OH2           3.2870649327        6.0848305976       -0.5359224174  CLST         837          1.0000000000
      2510       837  TIP3  H1            2.6360498237        5.6915822572       -1.1722432397  CLST         837          1.0000000000
      2511       837  TIP3  H2            2.8133322142        6.8432159984       -0.2693963876  CLST         837          1.0000000000
      2512       838  TIP3  OH2          -1.5808397131      -13.6691670012      -11.1727030964  CLST         838          1.0000000000
      2513       838  TIP3  H1           -1.5260285457      -14.5387047321      -10.7262723454  CLST         838          1.0000000000
      2514       838  TIP3  H2           -2.4792577263      -13.6441427840      -11.4435575346  CLST         838          1.0000000000
      2515       839  TIP3  OH2           1.3625239307       -7.2663076964       -1.4208647906  CLST         839          1.0000000000
      2516       839  TIP3  H1            0.9379219530       -7.6207402032       -0.6196351034  CLST         839          1.0000000000
      2517       839  TIP3  H2            0.5630052191       -6.8923490274       -1.8750812353  CLST         839          1.0000000000
      2518       840  TIP3  OH2          -7.5068952277       11.6720808875       10.7818882865  CLST         840          1.0000000000
      2519       840  TIP3  H1           -7.8965050863       11.1235267985       11.5248301446  CLST         840          1.0000000000
      2520       840  TIP3  H2           -6.7732162970       11.0606249995       10.5718778589  CLST         840          1.0000000000
      2521       841  TIP3  OH2          -8.5174004769       -7.6849327402       -4.2069682455  CLST         841          1.0000000000
      2522       841  TIP3  H1           -8.1608133064       -7.6466296966       -3.2928352807  CLST         841          1.0000000000
      2523       841  TIP3  H2           -7.6502750421       -7.5951861887       -4.6968883086  CLST         841          1.0000000000
      2524       842  TIP3  OH2          11.4116589336      -14.3387327911        0.1329370589  CLST         842          1.0000000000
      2525       842  TIP3  H1           10.9594740549      -14.5317300042        1.0066897649  CLST         842          1.0000000000
      2526       842  TIP3  H2           10.6946527977      -14.4045600626       -0.4867559504  CLST         842          1.0000000000
      2527       843  TIP3  OH2           9.4164578050       13.1291927969        3.8263788538  CLST         843          1.0000000000
      2528       843  TIP3  H1            8.8689425206       12.7771829179        4.5795651737  CLST         843          1.0000000000
      2529       843  TIP3  H2            8.7671371712       13.5081299764        3.2281187204  CLST         843          1.0000000000
      2530       844  TIP3  OH2           1.4494133936      -12.5929582459       -1.8134575813  CLST         844          1.0000000000
      2531       844  TIP3  H1            1.9685789760      -12.8091887388       -1.0178945250  CLST         844          1.0000000000
      2532       844  TIP3  H2            0.5855615904      -12.8861111754       -1.4356499545  CLST         844          1.0000000000
      2533       845  TIP3  OH2         -14.7108866543        4.4266593380       10.5533906813  CLST         845          1.0000000000
      2534       845  TIP3  H1          -14.5816744015        3.6275000498       11.0905141950  CLST         845          1.0000000000
      2535       845  TIP3  H2          -13.9084488936        4.9651305089       10.7183454761  CLST         845          1.0000000000
      2536       846  TIP3  OH2         -11.1159312186       -7.7797592746        2.4833451951  CLST         846          1.0000000000
      2537       846  TIP3  H1          -11.8631647346       -8.3740227287        2.7198089807  CLST         846          1.0000000000
      2538       846  TIP3  H2          -11.6275018270       -6.9557210637        2.3374653510  CLST         846          1.0000000000
      2539       847  TIP3  OH2           4.8994543693        9.7195523471        5.2765124723  CLST         847          1.0000000000
      2540       847  TIP3  H1            4.8643311092       10.7126554633        4.9513394958  CLST         847          1.0000000000
      2541       847  TIP3  H2            5.6122925698        9.9130918562        5.9011452338  CLST         847          1.0000000000
      2542       848  TIP3  OH2          -9.3691766833        5.6413947451       -9.7663540280  CLST         848          1.0000000000
      2543       848  TIP3  H1          -10.2075507776        5.2357453475      -10.2126889554  CLST         848          1.0000000000
      2544       848  TIP3  H2           -9.7299443542        6.4939505046       -9.4466273398  CLST         848          1.0000000000
      2545       849  TIP3  OH2          -1.6109948680        1.8285156921        0.1816633053  CLST         849          1.0000000000
      2546       849  TIP3  H1           -0.7167060444        2.2976677864        0.3152719094  CLST         849          1.0000000000
      2547       849  TIP3  H2           -1.8829973054        1.8882015750       -0.7494669623  CLST         849          1.0000000000
      2548       850  TIP3  OH2           5.3613583058       -6.4434080013        5.8322041858  CLST         850          1.0000000000
      2549       850  TIP3  H1            4.4130677734       -6.2018462182        6.0787797214  CLST         850          1.0000000000
      2550       850  TIP3  H2            5.8260448933       -5.6685706865        6.0232200212  CLST         850          1.0000000000
      2551       851  TIP3  OH2           8.3942743393        6.3234502439        5.4485048511  CLST         851          1.0000000000
      2552       851  TIP3  H1            8.3680759604        6.3836435405        6.4103771336  CLST         851          1.0000000000
      2553       851  TIP3  H2            8.4773437451        7.2120542510        5.1514229076  CLST         851          1.0000000000
      2554       852  TIP3  OH2           9.5320179250        3.8192751238        1.3867832026  CLST         852          1.0000000000
      2555       852  TIP3  H1            9.4091165030        3.6102665773        2.3585103783  CLST         852          1.0000000000
      2556       852  TIP3  H2            8.6461268967        4.0960596296        1.1670130615  CLST         852          1.0000000000
      2557       853  TIP3  OH2           8.6312294667       -5.0595166928       -3.2638734309  CLST         853          1.0000000000
      2558       853  TIP3  H1            8.2621889202       -4.7423625281       -4.0597135680  CLST         853          1.0000000000
      2559       853  TIP3  H2            8.1707642636       -4.5828984714       -2.5470798598  CLST         853          1.0000000000
      2560       854  TIP3  OH2         -10.7660366618       -9.1563418052       -5.9443617777  CLST         854          1.0000000000
      2561       854  TIP3  H1           -9.9556438323       -8.7317368476       -6.3772598222  CLST         854          1.0000000000
      2562       854  TIP3  H2          -10.6126563857       -8.8575819327       -5.0359201426  CLST         854          1.0000000000
      2563       855  TIP3  OH2           2.5938613615       -3.2396674762       -6.6443370121  CLST         855          1.0000000000
      2564       855  TIP3  H1            1.9802295164       -2.8008051438       -6.0213435375  CLST         855          1.0000000000
      2565       855  TIP3  H2            2.6883151358       -2.5048483308       -7.2863548079  CLST         855          1.0000000000
      2566       856  TIP3  OH2           3.2968392144      -12.8480017885        0.1786385664  CLST         856          1.0000000000
      2567       856  TIP3  H1            4.0854232015      -12.3269455183        0.2745461224  CLST         856          1.0000000000
      2568       856  TIP3  H2            3.5866218733      -13.5440355026        0.8290802130  CLST         856          1.0000000000
      2569       857  TIP3  OH2          -2.9857812651       -5.6880582234       11.1590595338  CLST         857          1.0000000000
      2570       857  TIP3  H1           -3.2967050070       -5.9360567594       12.0425357192  CLST         857          1.0000000000
      2571       857  TIP3  H2           -3.0572770729       -4.7434367781       11.2602340264  CLST         857          1.0000000000
      2572       858  TIP3  OH2           6.1933106728      -14.3688497793       12.9368577313  CLST         858          1.0000000000
      2573       858  TIP3  H1            6.6274378358      -15.0159122217       13.4649415203  CLST         858          1.0000000000
      2574       858  TIP3  H2            5.2723417338      -14.4169715818       13.2162766814  CLST         858          1.0000000000
      2575       859  TIP3  OH2          -8.5579117660       -1.4986069408      -12.9500716814  CLST         859          1.0000000000
      2576       859  TIP3  H1           -7.8370837402       -2.1831763183      -12.9193338548  CLST         859          1.0000000000
      2577       859  TIP3  H2           -8.3610770154       -1.0338845729      -12.1242697330  CLST         859          1.0000000000
      2578       860  TIP3  OH2          -9.9400209115       -6.2663004623       -1.1414853233  CLST         860          1.0000000000
      2579       860  TIP3  H1          -10.2022897616       -5.6093974711       -1.8262337336  CLST         860          1.0000000000
      2580       860  TIP3  H2           -9.1647816219       -6.7189086155       -1.5017751719  CLST         860          1.0000000000
      2581       861  TIP3  OH2           5.1536630813      -10.1905400109       -4.4208376326  CLST         861          1.0000000000
      2582       861  TIP3  H1            4.7030301673      -10.5215019888       -3.6656033927  CLST         861          1.0000000000
      2583       861  TIP3  H2            5.3178540442      -10.9461672053       -4.9818187465  CLST         861          1.0000000000
      2584       862  TIP3  OH2         -11.2435745787       -2.8577373189      -12.7779801316  CLST         862          1.0000000000
      2585       862  TIP3  H1          -10.5880012062       -2.1104352683      -12.8856595971  CLST         862          1.0000000000
      2586       862  TIP3  H2          -10.6878761756       -3.1403078650      -12.0446855936  CLST         862          1.0000000000
      2587       863  TIP3  OH2          11.0431308530      -10.6726342381       -8.6143014928  CLST         863          1.0000000000
      2588       863  TIP3  H1           11.7364207618      -10.3545309708       -8.0718969155  CLST         863          1.0000000000
      2589       863  TIP3  H2           11.4887086942      -11.1187903603       -9.3828909625  CLST         863          1.0000000000
      2590       864  TIP3  OH2         -13.7227543443        3.4349282764        3.1968235166  CLST         864          1.0000000000
      2591       864  TIP3  H1          -14.2234882221        3.5122784085        4.0195517964  CLST         864          1.0000000000
      2592       864  TIP3  H2          -13.5917135769        4.3314622604        2.9106985684  CLST         864          1.0000000000
      2593       865  TIP3  OH2          12.8214403844        8.6191582882      -11.3976858172  CLST         865          1.0000000000
      2594       865  TIP3  H1           13.5780727419        8.1541477181      -11.6916588734  CLST         865          1.0000000000
      2595       865  TIP3  H2           12.8419720000        8.3248519650      -10.5148258886  CLST         865          1.0000000000
      2596       866  TIP3  OH2           6.5573696904      -10.3025277964       -8.4155904934  CLST         866          1.0000000000
      2597       866  TIP3  H1            6.2922750479      -11.0473957968       -7.7624788301  CLST         866          1.0000000000
      2598       866  TIP3  H2            7.1650598612      -10.6017052271       -9.0780162916  CLST         866          1.0000000000
      2599       867  TIP3  OH2          -8.4122648324       12.2871466919       -3.1001678892  CLST         867          1.0000000000
      2600       867  TIP3  H1           -9.3276904910       12.3249316417       -2.8103251194  CLST         867          1.0000000000
      2601       867  TIP3  H2           -8.0406007591       13.0630891420       -2.6167751371  CLST         867          1.0000000000
      2602       868  TIP3  OH2          -9.6966123110       13.1791592852       10.0059568913  CLST         868          1.0000000000
      2603       868  TIP3  H1           -9.0332217289       12.4436502140        9.9370249719  CLST         868          1.0000000000
      2604       868  TIP3  H2           -9.2534201394       13.9130803556        9.6158750595  CLST         868          1.0000000000
      2605       869  TIP3  OH2           3.2369717700       -1.6712111701        1.2286856366  CLST         869          1.0000000000
      2606       869  TIP3  H1            2.5512677759       -2.3200527031        1.0530821966  CLST         869          1.0000000000
      2607       869  TIP3  H2            2.7718765387       -1.1908111455        1.9668420645  CLST         869          1.0000000000
      2608       870  TIP3  OH2          -6.9663132861       -3.8073566053      -12.9908487721  CLST         870          1.0000000000
      2609       870  TIP3  H1           -6.1009957927       -3.7761836397      -12.5774932393  CLST         870          1.0000000000
      2610       870  TIP3  H2           -6.6758872673       -3.7423852047      -13.8948704173  CLST         870          1.0000000000
      2611       871  TIP3  OH2          -7.2838700935        2.4740507851       -9.9253489883  CLST         871          1.0000000000
      2612       871  TIP3  H1           -7.4774085585        2.7581708276      -10.7957123894  CLST         871          1.0000000000
      2613       871  TIP3  H2           -8.1762767539        2.2475681277       -9.5727490773  CLST         871          1.0000000000
      2614       872  TIP3  OH2         -13.1781618662       11.4712978561       -9.9547226610  CLST         872          1.0000000000
      2615       872  TIP3  H1          -12.9727127384       11.8422215908      -10.7644025554  CLST         872          1.0000000000
      2616       872  TIP3  H2          -13.2554865720       10.5708618288      -10.0827427081  CLST         872          1.0000000000
      2617       873  TIP3  OH2          12.0209503664       -4.2735642546      -10.0216604897  CLST         873          1.0000000000
      2618       873  TIP3  H1           11.6676055962       -3.4018541955      -10.1210110616  CLST         873          1.0000000000
      2619       873  TIP3  H2           12.0453788289       -4.5197374931      -10.9650772284  CLST         873          1.0000000000
      2620       874  TIP3  OH2          12.8904895110        8.3579009225       -8.5553512515  CLST         874          1.0000000000
      2621       874  TIP3  H1           13.2271611406        7.7973564564       -7.8115920084  CLST         874          1.0000000000
      2622       874  TIP3  H2           11.8931751874        8.4867453006       -8.3981863128  CLST         874          1.0000000000
      2623       875  TIP3  OH2           1.1989640745       -1.4536620616      -12.5182428522  CLST         875          1.0000000000
      2624       875  TIP3  H1            2.1383990125       -1.6272201573      -12.8145353348  CLST         875          1.0000000000
      2625       875  TIP3  H2            0.7651721266       -1.4797098102      -13.3681811590  CLST         875          1.0000000000
      2626       876  TIP3  OH2           9.1949783196        7.1632554435      -11.8570778053  CLST         876          1.0000000000
      2627       876  TIP3  H1            8.9958522708        7.3577959656      -12.7838127493  CLST         876          1.0000000000
      2628       876  TIP3  H2            8.2509373956        7.0641947194      -11.4914904470  CLST         876          1.0000000000
      2629       877  TIP3  OH2          -7.0230236513      -13.3835056882       -5.0815438233  CLST         877          1.0000000000
      2630       877  TIP3  H1           -7.6879198569      -12.9395212183       -4.5155444125  CLST         877          1.0000000000
      2631       877  TIP3  H2           -6.1915106683      -12.8037253891       -5.0854867008  CLST         877          1.0000000000
      2632       878  TIP3  OH2           5.6876550611      -11.1842728491        6.9066682251  CLST         878          1.0000000000
      2633       878  TIP3  H1            5.0013991111      -11.6430245409        6.4519035700  CLST         878          1.0000000000
      2634       878  TIP3  H2            5.1500160305      -10.4028439427        7.1508421147  CLST         878          1.0000000000
      2635       879  TIP3  OH2           2.9118407662        5.1190837804       -7.1742088628  CLST         879          1.0000000000
      2636       879  TIP3  H1            3.4819528085        5.5905436624       -7.7198746515  CLST         879          1.0000000000
      2637       879  TIP3  H2            3.4531759386        5.0984814420       -6.3358949596  CLST         879          1.0000000000
      2638       880  TIP3  OH2          -5.5561274070       -1.8568466763       14.9712078661  CLST         880          1.0000000000
      2639       880  TIP3  H1           -6.0799616955       -2.5969707982       14.5516327742  CLST         880          1.0000000000
      2640       880  TIP3  H2           -5.9658515947       -1.0541443770       14.5316331535  CLST         880          1.0000000000
      2641       881  TIP3  OH2          -0.5497607160       13.5836869969        8.4491569564  CLST         881          1.0000000000
      2642       881  TIP3  H1           -0.0280657334       13.4940230537        7.5649063139  CLST         881          1.0000000000
      2643       881  TIP3  H2           -1.4976091897       13.6849379413        8.2064838748  CLST         881          1.0000000000
      2644       882  TIP3  OH2          12.3646073956       -1.8101232846       -1.3285153835  CLST         882          1.0000000000
      2645       882  TIP3  H1           11.7742463588       -2.4296162469       -1.7551601307  CLST         882          1.0000000000
      2646       882  TIP3  H2           12.2109082581       -2.0430341332       -0.3910674773  CLST         882          1.0000000000
      2647       883  TIP3  OH2           1.6354214979       -9.4722886475       -4.4459288904  CLST         883          1.0000000000
      2648       883  TIP3  H1            2.1032066644       -9.6243417996       -3.6287702518  CLST         883          1.0000000000
      2649       883  TIP3  H2            2.3736517793       -9.4907357107       -5.0885040690  CLST         883          1.0000000000
      2650       884  TIP3  OH2         -14.2233038661       -5.9829289152      -13.2280952914  CLST         884          1.0000000000
      2651       884  TIP3  H1          -13.4782006973       -6.5765767994      -13.3849988880  CLST         884          1.0000000000
      2652       884  TIP3  H2          -14.8379592902       -6.5684570144      -12.7516942711  CLST         884          1.0000000000
      2653       885  TIP3  OH2           0.8186501092       14.8321055969       -0.4300517528  CLST         885          1.0000000000
      2654       885  TIP3  H1           -0.1640759969       14.8208780781       -0.4118276218  CLST         885          1.0000000000
      2655       885  TIP3  H2            1.0576954032       13.9167013483       -0.1216854594  CLST         885          1.0000000000
      2656       886  TIP3  OH2          12.0836196923       10.0799771932        4.0015349286  CLST         886          1.0000000000
      2657       886  TIP3  H1           12.7880600219        9.4460188152        3.8416289825  CLST         886          1.0000000000
      2658       886  TIP3  H2           11.7285607489        9.9124357930        4.8953479618  CLST         886          1.0000000000
      2659       887  TIP3  OH2          -7.3735940984       -7.9222264866       -1.7720077216  CLST         887          1.0000000000
      2660       887  TIP3  H1           -7.2297031136       -8.8548896327       -1.9755317764  CLST         887          1.0000000000
      2661       887  TIP3  H2           -6.5504709498       -7.6736692808       -1.3606874753  CLST         887          1.0000000000
      2662       888  TIP3  OH2         -13.1918872176       -2.8650813599       10.6103570249  CLST         888          1.0000000000
      2663       888  TIP3  H1          -13.6827219366       -2.8763502206       11.4791123584  CLST         888          1.0000000000
      2664       888  TIP3  H2          -12.4826066035       -2.2113115767       10.8182006806  CLST         888          1.0000000000
      2665       889  TIP3  OH2           4.8722464598      -12.8708052912        8.8299746549  CLST         889          1.0000000000
      2666       889  TIP3  H1            5.5612819436      -12.4950307808        8.2295300706  CLST         889          1.0000000000
      2667       889  TIP3  H2            4.9198583405      -12.1630936702        9.4534324953  CLST         889          1.0000000000
      2668       890  TIP3  OH2         -13.6643049146        5.8648094661       -9.5693952285  CLST         890          1.0000000000
      2669       890  TIP3  H1          -13.8554930797        6.7004660941       -9.9705832126  CLST         890          1.0000000000
      2670       890  TIP3  H2          -14.0904726984        6.0310942735       -8.7444945451  CLST         890          1.0000000000
      2671       891  TIP3  OH2         -12.7213577402       -5.7653964150       10.8468698545  CLST         891          1.0000000000
      2672       891  TIP3  H1          -13.2888750516       -4.9837257046       10.7749796854  CLST         891          1.0000000000
      2673       891  TIP3  H2          -12.6844183394       -5.8996298092        9.8704269916  CLST         891          1.0000000000
      2674       892  TIP3  OH2           3.2196587436       13.8692894852       13.5822338653  CLST         892          1.0000000000
      2675       892  TIP3  H1            2.5710884802       14.2028391897       14.1774158810  CLST         892          1.0000000000
      2676       892  TIP3  H2            3.5069115974       13.1259160300       14.1136116089  CLST         892          1.0000000000
      2677       893  TIP3  OH2          -0.3322752800        7.3615112364        3.1089284356  CLST         893          1.0000000000
      2678       893  TIP3  H1           -0.8135767097        6.5539591825        2.9239036600  CLST         893          1.0000000000
      2679       893  TIP3  H2           -0.7980104236        7.9698810882        2.5656994868  CLST         893          1.0000000000
      2680       894  TIP3  OH2           9.4263659096       11.2967166203        0.3076604097  CLST         894          1.0000000000
      2681       894  TIP3  H1            9.8437232744       12.0440391236        0.7761048879  CLST         894          1.0000000000
      2682       894  TIP3  H2            8.5990523223       11.5354998288       -0.1572191371  CLST         894          1.0000000000
      2683       895  TIP3  OH2         -10.0422512682       10.5908639583      -10.7563232655  CLST         895          1.0000000000
      2684       895  TIP3  H1          -10.3316890233       11.2388986688      -10.0693692909  CLST         895          1.0000000000
      2685       895  TIP3  H2           -9.1072192911       10.8805826375      -10.7334816745  CLST         895          1.0000000000
      2686       896  TIP3  OH2           8.0594154595       -6.8487023884       -0.3792388694  CLST         896          1.0000000000
      2687       896  TIP3  H1            7.6424846389       -6.5280574281       -1.1898162830  CLST         896          1.0000000000
      2688       896  TIP3  H2            8.8054953929       -7.3898853919       -0.7289348233  CLST         896          1.0000000000
      2689       897  TIP3  OH2           9.6042642609       -2.2125824079       -9.0759966875  CLST         897          1.0000000000
      2690       897  TIP3  H1            9.3640618482       -2.5416072836       -8.1757413188  CLST         897          1.0000000000
      2691       897  TIP3  H2            9.5807142369       -1.2725801727       -8.9136168256  CLST         897          1.0000000000
      2692       898  TIP3  OH2          13.9655664009        5.9668329175      -11.7926916757  CLST         898          1.0000000000
      2693       898  TIP3  H1           14.7179970261        5.5720668210      -11.2783657868  CLST         898          1.0000000000
      2694       898  TIP3  H2           13.2048046079        5.5720344644      -11.3920107921  CLST         898          1.0000000000
      2695       899  TIP3  OH2          14.2814377317       -6.4923745822        1.7164720178  CLST         899          1.0000000000
      2696       899  TIP3  H1           14.2556392349       -7.4349162175        1.7669980055  CLST         899          1.0000000000
      2697       899  TIP3  H2           13.7525240743       -6.2723189891        2.5114877598  CLST         899          1.0000000000
      2698       900  TIP3  OH2          -9.7568748181      -10.1706466748        9.9199465354  CLST         900          1.0000000000
      2699       900  TIP3  H1           -9.7446750650       -9.2511880904       10.2690913199  CLST         900          1.0000000000
      2700       900  TIP3  H2           -8.9625655469      -10.1798962366        9.3310374324  CLST         900          1.0000000000
      2701       901  TIP3  OH2          10.1821471432        8.5954647447       -8.5392992087  CLST         901          1.0000000000
      2702       901  TIP3  H1           10.0437134613        9.5513900416       -8.6070139160  CLST         901          1.0000000000
      2703       901  TIP3  H2            9.6567794310        8.2498588636       -9.2616678525  CLST         901          1.0000000000
      2704       902  TIP3  OH2           3.6568222610        0.4589249976       10.0430614987  CLST         902          1.0000000000
      2705       902  TIP3  H1            4.0990135909       -0.0970224460        9.4377745915  CLST         902          1.0000000000
      2706       902  TIP3  H2            3.5628235849        1.1951686964        9.4097690477  CLST         902          1.0000000000
      2707       903  TIP3  OH2          -0.8706579662        0.7196973833       -8.3439214358  CLST         903          1.0000000000
      2708       903  TIP3  H1           -0.6617237863        0.5335559959       -9.3026966658  CLST         903          1.0000000000
      2709       903  TIP3  H2           -0.2854510509        0.0766784564       -7.9942324465  CLST         903          1.0000000000
