PSF EXT CMAP XPLOR

         1 !NTITLE
*  DATE:     7/29/26     18:50:29      CREATED BY USER: andreychev              

         6 !NATOM
         1 CLST     1        ACN      C1       CG331   -0.170000       12.0110           0
         2 CLST     1        ACN      H11      HGA3     0.900000E-01   1.00800           0
         3 CLST     1        ACN      H12      HGA3     0.900000E-01   1.00800           0
         4 CLST     1        ACN      H13      HGA3     0.900000E-01   1.00800           0
         5 CLST     1        ACN      C2       CG1N1    0.360000       12.0110           0
         6 CLST     1        ACN      N3       NG1T1   -0.460000       14.0070           0

         5 !NBOND: bonds
         1         5         5         6         1         2         1         3
         1         4

         7 !NTHETA: angles
         2         1         3         2         1         4         2         1         5
         3         1         4         3         1         5         4         1         5
         1         5         6

         0 !NPHI: dihedrals


         0 !NIMPHI: impropers


         0 !NDON: donors


         0 !NACC: acceptors


         0 !NNB

         0         0         0         0         0         0

         1         0 !NGRP NST2
         0         1         0

         0         0 !NUMLP NUMLPH

         0 !NCRTERM: cross-terms

