PSF EXT CMAP XPLOR

         1 !NTITLE
*  DATE:     7/29/26     18:50:54      CREATED BY USER: andreychev              

        18 !NATOM
         1 CLST     1        CHEX     C1       CG321   -0.180000       12.0110           0
         2 CLST     1        CHEX     H11      HGA2     0.900000E-01   1.00800           0
         3 CLST     1        CHEX     H12      HGA2     0.900000E-01   1.00800           0
         4 CLST     1        CHEX     C2       CG321   -0.180000       12.0110           0
         5 CLST     1        CHEX     H21      HGA2     0.900000E-01   1.00800           0
         6 CLST     1        CHEX     H22      HGA2     0.900000E-01   1.00800           0
         7 CLST     1        CHEX     C3       CG321   -0.180000       12.0110           0
         8 CLST     1        CHEX     H31      HGA2     0.900000E-01   1.00800           0
         9 CLST     1        CHEX     H32      HGA2     0.900000E-01   1.00800           0
        10 CLST     1        CHEX     C4       CG321   -0.180000       12.0110           0
        11 CLST     1        CHEX     H41      HGA2     0.900000E-01   1.00800           0
        12 CLST     1        CHEX     H42      HGA2     0.900000E-01   1.00800           0
        13 CLST     1        CHEX     C5       CG321   -0.180000       12.0110           0
        14 CLST     1        CHEX     H51      HGA2     0.900000E-01   1.00800           0
        15 CLST     1        CHEX     H52      HGA2     0.900000E-01   1.00800           0
        16 CLST     1        CHEX     C6       CG321   -0.180000       12.0110           0
        17 CLST     1        CHEX     H61      HGA2     0.900000E-01   1.00800           0
        18 CLST     1        CHEX     H62      HGA2     0.900000E-01   1.00800           0

        18 !NBOND: bonds
         1         4         4         7         7        10        10        13
        13        16        16         1         1         2         1         3
         4         5         4         6         7         8         7         9
        10        11        10        12        13        14        13        15
        16        17        16        18

        36 !NTHETA: angles
         2         1         3         2         1         4         2         1        16
         3         1         4         3         1        16         4         1        16
         1         4         5         1         4         6         1         4         7
         5         4         6         5         4         7         6         4         7
         4         7         8         4         7         9         4         7        10
         8         7         9         8         7        10         9         7        10
         7        10        11         7        10        12         7        10        13
        11        10        12        11        10        13        12        10        13
        10        13        14        10        13        15        10        13        16
        14        13        15        14        13        16        15        13        16
         1        16        13         1        16        17         1        16        18
        13        16        17        13        16        18        17        16        18

        54 !NPHI: dihedrals
         1         4         7         8         1         4         7         9
         1         4         7        10         1        16        13        10
         1        16        13        14         1        16        13        15
         2         1         4         5         2         1         4         6
         2         1         4         7         2         1        16        13
         2         1        16        17         2         1        16        18
         3         1         4         5         3         1         4         6
         3         1         4         7         3         1        16        13
         3         1        16        17         3         1        16        18
         4         1        16        13         4         1        16        17
         4         1        16        18         4         7        10        11
         4         7        10        12         4         7        10        13
         5         4         1        16         5         4         7         8
         5         4         7         9         5         4         7        10
         6         4         1        16         6         4         7         8
         6         4         7         9         6         4         7        10
         7         4         1        16         7        10        13        14
         7        10        13        15         7        10        13        16
         8         7        10        11         8         7        10        12
         8         7        10        13         9         7        10        11
         9         7        10        12         9         7        10        13
        10        13        16        17        10        13        16        18
        11        10        13        14        11        10        13        15
        11        10        13        16        12        10        13        14
        12        10        13        15        12        10        13        16
        14        13        16        17        14        13        16        18
        15        13        16        17        15        13        16        18

         0 !NIMPHI: impropers


         0 !NDON: donors


         0 !NACC: acceptors


         0 !NNB

         0         0         0         0         0         0         0         0
         0         0         0         0         0         0         0         0
         0         0

         6         0 !NGRP NST2
         0         1         0         3         1         0         6         1         0
         9         1         0        12         1         0        15         1         0

         0         0 !NUMLP NUMLPH

         0 !NCRTERM: cross-terms

