* liquid-box certified
*
        2709  EXT
         1         1  TIP3  OH2           5.6483635896        0.9301305491       -3.2474379451  CLST           1          1.0000000000
         2         1  TIP3  H1            5.3774918018        0.5827001162       -2.3735600683  CLST           1          1.0000000000
         3         1  TIP3  H2            4.7816361186        0.8775296505       -3.7063498372  CLST           1          1.0000000000
         4         2  TIP3  OH2          14.6362233407       -1.3917083093       -0.7571329558  CLST           2          1.0000000000
         5         2  TIP3  H1           14.0998920043       -0.8604297665       -1.3741742046  CLST           2          1.0000000000
         6         2  TIP3  H2           14.3540696778       -2.2993336101       -0.9757241887  CLST           2          1.0000000000
         7         3  TIP3  OH2          -7.9515635553       -6.3600523448       -7.3312821964  CLST           3          1.0000000000
         8         3  TIP3  H1           -8.8540821494       -6.0066794706       -7.1867645041  CLST           3          1.0000000000
         9         3  TIP3  H2           -7.9818670382       -6.5247133949       -8.2979088230  CLST           3          1.0000000000
        10         4  TIP3  OH2          -9.2488551059       -3.8595938056       12.9253427740  CLST           4          1.0000000000
        11         4  TIP3  H1          -10.1756480108       -4.1437147576       13.0759144336  CLST           4          1.0000000000
        12         4  TIP3  H2           -9.0594873119       -4.3438769049       12.0908837969  CLST           4          1.0000000000
        13         5  TIP3  OH2          -3.5753266123      -10.0929084578       14.3966313612  CLST           5          1.0000000000
        14         5  TIP3  H1           -4.0283335471      -10.7625982250       14.9500000000  CLST           5          1.0000000000
        15         5  TIP3  H2           -3.7923541248      -10.4269140239       13.4990262761  CLST           5          1.0000000000
        16         6  TIP3  OH2          -3.5318786947        9.2820037553       12.8912723697  CLST           6          1.0000000000
        17         6  TIP3  H1           -2.6799030877        9.5980841561       13.2506286740  CLST           6          1.0000000000
        18         6  TIP3  H2           -3.2277665401        8.5909509299       12.2724677713  CLST           6          1.0000000000
        19         7  TIP3  OH2          -5.4163818773       -1.5389335428        8.4588957315  CLST           7          1.0000000000
        20         7  TIP3  H1           -5.2196483118       -1.0135147542        7.6528171592  CLST           7          1.0000000000
        21         7  TIP3  H2           -5.6971244611       -2.3773648502        8.0429230177  CLST           7          1.0000000000
        22         8  TIP3  OH2          -6.7431268925       -4.7044338346       -0.8608207498  CLST           8          1.0000000000
        23         8  TIP3  H1           -6.3676754830       -4.6411564353        0.0384710142  CLST           8          1.0000000000
        24         8  TIP3  H2           -5.9153792880       -4.8113051980       -1.3794410237  CLST           8          1.0000000000
        25         9  TIP3  OH2         -12.8590100516       -5.2357344721       -0.0764064644  CLST           9          1.0000000000
        26         9  TIP3  H1          -13.1788260992       -5.1976076506       -0.9970904944  CLST           9          1.0000000000
        27         9  TIP3  H2          -12.9241561706       -4.2858204982        0.1677031122  CLST           9          1.0000000000
        28        10  TIP3  OH2          -4.8017545470        8.1476819080       -8.2849540452  CLST          10          1.0000000000
        29        10  TIP3  H1           -4.8354875174        9.1248544307       -8.1627688580  CLST          10          1.0000000000
        30        10  TIP3  H2           -3.8428225339        8.0099177484       -8.4176622771  CLST          10          1.0000000000
        31        11  TIP3  OH2           5.8253284103       12.4799238652       10.3514605434  CLST          11          1.0000000000
        32        11  TIP3  H1            5.0654257541       13.0890683752       10.5066244739  CLST          11          1.0000000000
        33        11  TIP3  H2            5.4264447072       11.6180861835       10.5981933004  CLST          11          1.0000000000
        34        12  TIP3  OH2         -11.4581171894      -12.8075962003       -3.6939344082  CLST          12          1.0000000000
        35        12  TIP3  H1          -12.2318833475      -12.3681884120       -3.2911498751  CLST          12          1.0000000000
        36        12  TIP3  H2          -11.7814618122      -13.0270669690       -4.5847931670  CLST          12          1.0000000000
        37        13  TIP3  OH2          -0.6872481760      -10.9208492837        2.7322578156  CLST          13          1.0000000000
        38        13  TIP3  H1            0.1930172109      -11.1825000300        2.3802895100  CLST          13          1.0000000000
        39        13  TIP3  H2           -0.3974544703      -10.6396034704        3.6235861111  CLST          13          1.0000000000
        40        14  TIP3  OH2          -1.7458455342        5.2149282717        7.8800569738  CLST          14          1.0000000000
        41        14  TIP3  H1           -1.7711932510        5.0394052226        8.8399125411  CLST          14          1.0000000000
        42        14  TIP3  H2           -0.8211679377        4.9746142913        7.6692452646  CLST          14          1.0000000000
        43        15  TIP3  OH2           1.3093493271       -1.1561067128       -4.3653925383  CLST          15          1.0000000000
        44        15  TIP3  H1            0.5719978979       -0.7482110864       -3.8598347030  CLST          15          1.0000000000
        45        15  TIP3  H2            1.4888496479       -1.9584926280       -3.8413314806  CLST          15          1.0000000000
        46        16  TIP3  OH2          -4.7874316637       -7.1364355287       12.3292133445  CLST          16          1.0000000000
        47        16  TIP3  H1           -3.9944020656       -7.3882534742       12.8551792330  CLST          16          1.0000000000
        48        16  TIP3  H2           -5.4036754813       -6.8885984684       13.0511988450  CLST          16          1.0000000000
        49        17  TIP3  OH2           8.8289656369       -0.4823965225        2.1341315743  CLST          17          1.0000000000
        50        17  TIP3  H1            8.1299218051       -0.9362373154        1.6280845430  CLST          17          1.0000000000
        51        17  TIP3  H2            9.4918051941       -1.2083220975        2.1795037606  CLST          17          1.0000000000
        52        18  TIP3  OH2           3.2133019963       -7.9170042382       -8.6795120479  CLST          18          1.0000000000
        53        18  TIP3  H1            3.5136744794       -7.0993416816       -8.2331308620  CLST          18          1.0000000000
        54        18  TIP3  H2            3.4022445085       -8.5783472514       -7.9753129525  CLST          18          1.0000000000
        55        19  TIP3  OH2           6.4897307899        6.9713551280      -14.9500000000  CLST          19          1.0000000000
        56        19  TIP3  H1            7.1856943436        6.4243179354      -14.5279149296  CLST          19          1.0000000000
        57        19  TIP3  H2            6.5769401769        7.8110906536      -14.4467425064  CLST          19          1.0000000000
        58        20  TIP3  OH2           4.4691844164        9.7056217299        8.2919360518  CLST          20          1.0000000000
        59        20  TIP3  H1            3.7736074525       10.3425918458        8.0209842244  CLST          20          1.0000000000
        60        20  TIP3  H2            4.0983154743        8.8883741609        7.8888983880  CLST          20          1.0000000000
        61        21  TIP3  OH2           0.6866476363       -8.9212374462        0.6072265973  CLST          21          1.0000000000
        62        21  TIP3  H1            0.8021425741       -8.6242429062        1.5351466637  CLST          21          1.0000000000
        63        21  TIP3  H2           -0.2548646394       -9.1932456206        0.6175269893  CLST          21          1.0000000000
        64        22  TIP3  OH2          10.6309407334       -9.1338368643        9.3084500100  CLST          22          1.0000000000
        65        22  TIP3  H1           10.6566356161       -8.8541406075        8.3672813941  CLST          22          1.0000000000
        66        22  TIP3  H2           10.8709186680      -10.0816378481        9.2260050799  CLST          22          1.0000000000
        67        23  TIP3  OH2          11.8566307593       12.8735363865      -12.7473627659  CLST          23          1.0000000000
        68        23  TIP3  H1           10.9265376100       13.1321294413      -12.6273953174  CLST          23          1.0000000000
        69        23  TIP3  H2           12.1233849070       12.6084998640      -11.8460861027  CLST          23          1.0000000000
        70        24  TIP3  OH2          12.3740802469       -7.3995933809       14.1924152944  CLST          24          1.0000000000
        71        24  TIP3  H1           12.0220554789       -7.4476410523       13.2822338830  CLST          24          1.0000000000
        72        24  TIP3  H2           11.5729272314       -7.2470541707       14.7248911270  CLST          24          1.0000000000
        73        25  TIP3  OH2           0.4796689394       -5.9662258252        5.6890676137  CLST          25          1.0000000000
        74        25  TIP3  H1           -0.1532808306       -5.7964868389        4.9601647829  CLST          25          1.0000000000
        75        25  TIP3  H2            0.2282269812       -6.8720870686        5.9698407910  CLST          25          1.0000000000
        76        26  TIP3  OH2          -5.4312750881       -5.2873651136       -7.1796531680  CLST          26          1.0000000000
        77        26  TIP3  H1           -6.3747572267       -5.5365870562       -7.0608518926  CLST          26          1.0000000000
        78        26  TIP3  H2           -5.3417513287       -5.4066526676       -8.1430379620  CLST          26          1.0000000000
        79        27  TIP3  OH2           3.9411954238       11.5433910644       -1.4047245573  CLST          27          1.0000000000
        80        27  TIP3  H1            4.7475768122       11.3170893484       -0.8940384322  CLST          27          1.0000000000
        81        27  TIP3  H2            3.8821904773       12.4967827655       -1.1846239184  CLST          27          1.0000000000
        82        28  TIP3  OH2          -4.6802345975       -5.7251798264        6.0052886147  CLST          28          1.0000000000
        83        28  TIP3  H1           -3.7444829288       -5.9704796731        5.8530969002  CLST          28          1.0000000000
        84        28  TIP3  H2           -5.1052560818       -6.1364311718        5.2188896613  CLST          28          1.0000000000
        85        29  TIP3  OH2           4.2915215938      -10.2661521796       12.8554752992  CLST          29          1.0000000000
        86        29  TIP3  H1            5.1044992842       -9.7596123715       13.0583234706  CLST          29          1.0000000000
        87        29  TIP3  H2            3.6052023337       -9.5831692113       12.9833300790  CLST          29          1.0000000000
        88        30  TIP3  OH2          -0.9738048837       -3.3463893395       11.8225172320  CLST          30          1.0000000000
        89        30  TIP3  H1           -1.1782986080       -4.0573344823       12.4631839414  CLST          30          1.0000000000
        90        30  TIP3  H2           -0.6476122200       -2.6324920359       12.4081330265  CLST          30          1.0000000000
        91        31  TIP3  OH2          -5.8452752504      -10.5150719166       -9.4363655382  CLST          31          1.0000000000
        92        31  TIP3  H1           -6.7393613216      -10.1886975297       -9.1967708391  CLST          31          1.0000000000
        93        31  TIP3  H2           -5.2704065466       -9.7942444692       -9.0972883226  CLST          31          1.0000000000
        94        32  TIP3  OH2           4.0073056156        6.1292273833      -14.3411970910  CLST          32          1.0000000000
        95        32  TIP3  H1            4.9133870202        6.4202447397      -14.5774790113  CLST          32          1.0000000000
        96        32  TIP3  H2            3.4944877430        6.7067680444      -14.9500000000  CLST          32          1.0000000000
        97        33  TIP3  OH2           1.3030226505       -5.7311763583       12.4026833479  CLST          33          1.0000000000
        98        33  TIP3  H1            1.3023544928       -5.0576404248       13.1098073161  CLST          33          1.0000000000
        99        33  TIP3  H2            1.3149034200       -5.1637834374       11.6026921842  CLST          33          1.0000000000
       100        34  TIP3  OH2         -12.6727524411       -6.4521301320        5.3168013504  CLST          34          1.0000000000
       101        34  TIP3  H1          -12.6435182468       -5.9786719821        4.4606363131  CLST          34          1.0000000000
       102        34  TIP3  H2          -13.6459939834       -6.5416748369        5.4318707783  CLST          34          1.0000000000
       103        35  TIP3  OH2         -12.2057224832        8.7509454394       13.8254716747  CLST          35          1.0000000000
       104        35  TIP3  H1          -12.8809543636        9.2524235631       13.3125077320  CLST          35          1.0000000000
       105        35  TIP3  H2          -12.5678077458        8.7906363003       14.7174484708  CLST          35          1.0000000000
       106        36  TIP3  OH2           6.7621578448       -8.6127738752      -11.5223494627  CLST          36          1.0000000000
       107        36  TIP3  H1            7.5804637049       -8.7104368379      -10.9885527573  CLST          36          1.0000000000
       108        36  TIP3  H2            6.7822173368       -9.4359581146      -12.0520040429  CLST          36          1.0000000000
       109        37  TIP3  OH2          10.1008531287      -11.6737317573        6.5304287022  CLST          37          1.0000000000
       110        37  TIP3  H1            9.2190860851      -11.4564287765        6.9001765868  CLST          37          1.0000000000
       111        37  TIP3  H2           10.5799329421      -11.8728796056        7.3644817135  CLST          37          1.0000000000
       112        38  TIP3  OH2           5.7674365672      -12.4604822448       -0.5833919522  CLST          38          1.0000000000
       113        38  TIP3  H1            6.5744836637      -12.9636566132       -0.3544747171  CLST          38          1.0000000000
       114        38  TIP3  H2            5.7682480191      -12.5563032163       -1.5585853662  CLST          38          1.0000000000
       115        39  TIP3  OH2          12.8097863629        6.5072053397       -6.4548063519  CLST          39          1.0000000000
       116        39  TIP3  H1           12.8973351927        5.6472575570       -6.9122049467  CLST          39          1.0000000000
       117        39  TIP3  H2           11.9897141056        6.3774268078       -5.9279406794  CLST          39          1.0000000000
       118        40  TIP3  OH2          -4.7655102879       14.1188463748       -5.9545775460  CLST          40          1.0000000000
       119        40  TIP3  H1           -5.6031163736       13.6130474939       -5.8521592143  CLST          40          1.0000000000
       120        40  TIP3  H2           -4.2432834519       13.7763548682       -5.2026353931  CLST          40          1.0000000000
       121        41  TIP3  OH2          10.7158024564        6.1631805344      -11.4047592561  CLST          41          1.0000000000
       122        41  TIP3  H1           10.6737774271        5.5586505480      -12.1758111622  CLST          41          1.0000000000
       123        41  TIP3  H2           10.0858989702        6.8553575094      -11.6940871434  CLST          41          1.0000000000
       124        42  TIP3  OH2          -2.2746796878       -6.8311255734       -3.0269241146  CLST          42          1.0000000000
       125        42  TIP3  H1           -2.1857860030       -6.0055645818       -3.5416660478  CLST          42          1.0000000000
       126        42  TIP3  H2           -1.6777086806       -7.4305220649       -3.5132589107  CLST          42          1.0000000000
       127        43  TIP3  OH2          10.1182156537      -10.9019972282       -1.8360999522  CLST          43          1.0000000000
       128        43  TIP3  H1            9.6899114528      -10.9780055141       -0.9517795491  CLST          43          1.0000000000
       129        43  TIP3  H2            9.6168656041      -11.5926115653       -2.3237074333  CLST          43          1.0000000000
       130        44  TIP3  OH2           0.1959659906       -3.3461399214        6.3955579974  CLST          44          1.0000000000
       131        44  TIP3  H1           -0.6819356968       -3.5359333074        6.7925655334  CLST          44          1.0000000000
       132        44  TIP3  H2            0.4270934959       -4.2404955339        6.0693663523  CLST          44          1.0000000000
       133        45  TIP3  OH2           4.8379700961       -5.8158916981        9.5138452187  CLST          45          1.0000000000
       134        45  TIP3  H1            5.7378120271       -5.4253023331        9.5795351324  CLST          45          1.0000000000
       135        45  TIP3  H2            4.7448981224       -6.1865640610       10.4158993225  CLST          45          1.0000000000
       136        46  TIP3  OH2           8.0723315606        4.6919940210       -8.4401913091  CLST          46          1.0000000000
       137        46  TIP3  H1            7.6170153491        5.0364111129       -7.6421240802  CLST          46          1.0000000000
       138        46  TIP3  H2            7.5695615520        5.1582181513       -9.1404022830  CLST          46          1.0000000000
       139        47  TIP3  OH2         -11.0828632898      -11.0689900943        2.8315607020  CLST          47          1.0000000000
       140        47  TIP3  H1          -11.6953101466      -10.3960165192        3.2039049823  CLST          47          1.0000000000
       141        47  TIP3  H2          -10.8333128933      -11.5854878275        3.6223665628  CLST          47          1.0000000000
       142        48  TIP3  OH2         -14.2563354606        8.4513865329        8.8169022019  CLST          48          1.0000000000
       143        48  TIP3  H1          -14.2821016330        9.1157957339        8.0958098964  CLST          48          1.0000000000
       144        48  TIP3  H2          -13.4132348209        8.6982540288        9.2549349853  CLST          48          1.0000000000
       145        49  TIP3  OH2           8.1631186871       -4.3637964720        3.8972407853  CLST          49          1.0000000000
       146        49  TIP3  H1            7.1945220345       -4.3864257095        4.0027717424  CLST          49          1.0000000000
       147        49  TIP3  H2            8.2517501175       -4.3078026636        2.9236538023  CLST          49          1.0000000000
       148        50  TIP3  OH2          10.5224118870        6.3368691337       -4.9417148293  CLST          50          1.0000000000
       149        50  TIP3  H1            9.8715380429        5.6160942509       -4.8186610721  CLST          50          1.0000000000
       150        50  TIP3  H2           10.6587109719        6.6143661082       -4.0066200155  CLST          50          1.0000000000
       151        51  TIP3  OH2          12.7724658227       -1.2734326212      -10.3970868017  CLST          51          1.0000000000
       152        51  TIP3  H1           13.1627292764       -1.9366859188      -11.0063105810  CLST          51          1.0000000000
       153        51  TIP3  H2           12.3750360422       -0.6928775728      -11.0806465414  CLST          51          1.0000000000
       154        52  TIP3  OH2          -2.0655188872       -2.0710372549        9.6867095845  CLST          52          1.0000000000
       155        52  TIP3  H1           -2.8415245442       -1.6593327550       10.1146780576  CLST          52          1.0000000000
       156        52  TIP3  H2           -1.7061007932       -2.5891581805       10.4409023368  CLST          52          1.0000000000
       157        53  TIP3  OH2         -10.9723839210       14.0754542820       -7.0464785334  CLST          53          1.0000000000
       158        53  TIP3  H1          -11.3577323858       14.9500000000       -6.8307552729  CLST          53          1.0000000000
       159        53  TIP3  H2          -10.0189783013       14.2970478251       -6.9495654054  CLST          53          1.0000000000
       160        54  TIP3  OH2         -13.7111825217       -5.1838215279       -8.4013921434  CLST          54          1.0000000000
       161        54  TIP3  H1          -13.0261365078       -5.8319971637       -8.6568199138  CLST          54          1.0000000000
       162        54  TIP3  H2          -13.9689631158       -4.8294720308       -9.2766963452  CLST          54          1.0000000000
       163        55  TIP3  OH2           0.6231204477        9.4322542970      -10.4773263250  CLST          55          1.0000000000
       164        55  TIP3  H1           -0.2004406880        9.8312068107      -10.8300672052  CLST          55          1.0000000000
       165        55  TIP3  H2            0.8915819718       10.1117523977       -9.8220371525  CLST          55          1.0000000000
       166        56  TIP3  OH2          -1.4294778387       -5.1608248614       13.9583520222  CLST          56          1.0000000000
       167        56  TIP3  H1           -2.1349339415       -4.5970412485       14.3426161820  CLST          56          1.0000000000
       168        56  TIP3  H2           -1.8585270623       -6.0432776463       13.9597041054  CLST          56          1.0000000000
       169        57  TIP3  OH2         -10.0652652759       11.4243399431       -1.6958675539  CLST          57          1.0000000000
       170        57  TIP3  H1          -10.4438347841       11.7959237405       -0.8862214586  CLST          57          1.0000000000
       171        57  TIP3  H2          -10.8642213035       11.4436706266       -2.2679740924  CLST          57          1.0000000000
       172        58  TIP3  OH2           9.8564946784        1.6523050685        0.6968516742  CLST          58          1.0000000000
       173        58  TIP3  H1            9.2909546558        0.9982711858        1.1594614244  CLST          58          1.0000000000
       174        58  TIP3  H2            9.5613756775        2.4799814569        1.1303101754  CLST          58          1.0000000000
       175        59  TIP3  OH2         -13.3077284575       12.1474608029        4.7891556001  CLST          59          1.0000000000
       176        59  TIP3  H1          -13.3558506942       12.6971466229        3.9970282834  CLST          59          1.0000000000
       177        59  TIP3  H2          -12.3917368072       11.8164250441        4.7280637497  CLST          59          1.0000000000
       178        60  TIP3  OH2          -3.8008242002        3.4770815177        7.1609660653  CLST          60          1.0000000000
       179        60  TIP3  H1           -3.2494388387        2.7454989221        7.5146326341  CLST          60          1.0000000000
       180        60  TIP3  H2           -3.1791851291        4.2211164032        7.3010511285  CLST          60          1.0000000000
       181        61  TIP3  OH2           0.8596514426       -1.6420091212        0.7614843491  CLST          61          1.0000000000
       182        61  TIP3  H1            0.3080490076       -1.1066992676        1.3704359569  CLST          61          1.0000000000
       183        61  TIP3  H2            0.4366688667       -2.5242625620        0.8586409565  CLST          61          1.0000000000
       184        62  TIP3  OH2          -3.4589627807        8.8172003680        4.4038248785  CLST          62          1.0000000000
       185        62  TIP3  H1           -2.8974209036        8.2000283075        4.9300392236  CLST          62          1.0000000000
       186        62  TIP3  H2           -2.7583795415        9.3826668050        4.0025245889  CLST          62          1.0000000000
       187        63  TIP3  OH2          -0.3460041834        7.6410178787       -3.1174333233  CLST          63          1.0000000000
       188        63  TIP3  H1           -0.6113677408        8.4128139075       -3.6512661915  CLST          63          1.0000000000
       189        63  TIP3  H2           -0.9189684764        7.7436265947       -2.3272838330  CLST          63          1.0000000000
       190        64  TIP3  OH2         -13.8060423878        3.3590610566       -3.5927018308  CLST          64          1.0000000000
       191        64  TIP3  H1          -13.0206692424        3.9352415318       -3.4771571653  CLST          64          1.0000000000
       192        64  TIP3  H2          -14.4822143120        4.0311715651       -3.8113662432  CLST          64          1.0000000000
       193        65  TIP3  OH2          -8.9786327909      -11.6382812415      -10.8546230661  CLST          65          1.0000000000
       194        65  TIP3  H1           -8.7336642784      -12.2222556732      -10.1064632137  CLST          65          1.0000000000
       195        65  TIP3  H2           -9.7199707334      -11.1667005795      -10.4224435215  CLST          65          1.0000000000
       196        66  TIP3  OH2          13.2891419339       -8.0843666528        3.9450793682  CLST          66          1.0000000000
       197        66  TIP3  H1           13.2897033959       -8.4621624033        3.0466331970  CLST          66          1.0000000000
       198        66  TIP3  H2           12.8168741823       -8.7751709980        4.4494120850  CLST          66          1.0000000000
       199        67  TIP3  OH2           7.3273462405       -1.3852234732       -6.6196285262  CLST          67          1.0000000000
       200        67  TIP3  H1            7.5802411425       -1.5021852051       -5.6760057695  CLST          67          1.0000000000
       201        67  TIP3  H2            8.1647693327       -0.9934981967       -6.9509263245  CLST          67          1.0000000000
       202        68  TIP3  OH2          -7.1206361207        1.0953159879        1.1801528316  CLST          68          1.0000000000
       203        68  TIP3  H1           -7.7035461956        0.3678272362        1.4946196658  CLST          68          1.0000000000
       204        68  TIP3  H2           -7.1054461715        1.6837762545        1.9653076452  CLST          68          1.0000000000
       205        69  TIP3  OH2         -11.9900304539       -0.0912086139        7.4591847958  CLST          69          1.0000000000
       206        69  TIP3  H1          -11.1686903149       -0.2113342746        7.9763538416  CLST          69          1.0000000000
       207        69  TIP3  H2          -11.9512952337        0.8821990092        7.3342940636  CLST          69          1.0000000000
       208        70  TIP3  OH2          -2.0498936088        7.6893308333       -8.1122381543  CLST          70          1.0000000000
       209        70  TIP3  H1           -1.1455908558        7.4214718623       -8.3835415760  CLST          70          1.0000000000
       210        70  TIP3  H2           -1.8925255788        8.6654744868       -8.0757792986  CLST          70          1.0000000000
       211        71  TIP3  OH2         -12.6781300640       -1.7543856584       -5.6115294182  CLST          71          1.0000000000
       212        71  TIP3  H1          -12.2645096526       -1.4981370877       -4.7567189938  CLST          71          1.0000000000
       213        71  TIP3  H2          -12.9027328796       -0.8599576591       -5.9476119920  CLST          71          1.0000000000
       214        72  TIP3  OH2          10.5023928753       -2.1565590817        4.7776585596  CLST          72          1.0000000000
       215        72  TIP3  H1           10.3985686941       -2.5653226326        3.8956102384  CLST          72          1.0000000000
       216        72  TIP3  H2           11.1305319831       -1.4431345875        4.5371261314  CLST          72          1.0000000000
       217        73  TIP3  OH2          -4.7977198298      -13.1597637396       -6.0440778338  CLST          73          1.0000000000
       218        73  TIP3  H1           -4.6415974770      -12.9830873129       -6.9963409978  CLST          73          1.0000000000
       219        73  TIP3  H2           -4.8282937652      -14.1432764436       -6.0427919267  CLST          73          1.0000000000
       220        74  TIP3  OH2          -4.5115163207       12.1462991986       -1.4853511236  CLST          74          1.0000000000
       221        74  TIP3  H1           -5.0598795106       11.3815437790       -1.7508380680  CLST          74          1.0000000000
       222        74  TIP3  H2           -5.2004250015       12.8376129284       -1.4212384927  CLST          74          1.0000000000
       223        75  TIP3  OH2          -9.1597167319        5.4355452949        5.9610502125  CLST          75          1.0000000000
       224        75  TIP3  H1           -8.5266353152        6.1589483388        6.1391521254  CLST          75          1.0000000000
       225        75  TIP3  H2           -9.6414880164        5.3861807052        6.8185563726  CLST          75          1.0000000000
       226        76  TIP3  OH2           8.2712774271       13.4160549373       -9.1454457970  CLST          76          1.0000000000
       227        76  TIP3  H1            8.2015923236       12.8895703898       -9.9699233212  CLST          76          1.0000000000
       228        76  TIP3  H2            9.0843193101       12.9732315521       -8.8075967614  CLST          76          1.0000000000
       229        77  TIP3  OH2           0.4972743054       -4.3680064052       -5.6460902947  CLST          77          1.0000000000
       230        77  TIP3  H1            0.4568250863       -4.9238137235       -6.4526385084  CLST          77          1.0000000000
       231        77  TIP3  H2           -0.4231455550       -4.4724584185       -5.3147619301  CLST          77          1.0000000000
       232        78  TIP3  OH2          -5.2445570050       -7.9701300055        1.4149464906  CLST          78          1.0000000000
       233        78  TIP3  H1           -4.7408842291       -7.7183735157        0.6177114934  CLST          78          1.0000000000
       234        78  TIP3  H2           -5.9289699810       -8.5548828648        1.0402198881  CLST          78          1.0000000000
       235        79  TIP3  OH2           6.1178220223      -14.2480071157        9.5897597071  CLST          79          1.0000000000
       236        79  TIP3  H1            5.8648981864      -14.1248114774       10.5296852141  CLST          79          1.0000000000
       237        79  TIP3  H2            5.5012464464      -13.6281151153        9.1427686990  CLST          79          1.0000000000
       238        80  TIP3  OH2           6.5433826701        0.1920949458      -12.5909278092  CLST          80          1.0000000000
       239        80  TIP3  H1            6.6295200948        0.5218473391      -13.5074508955  CLST          80          1.0000000000
       240        80  TIP3  H2            7.4600796253       -0.0942139481      -12.4418822833  CLST          80          1.0000000000
       241        81  TIP3  OH2          -7.3901084227        1.3995869287        5.7367799162  CLST          81          1.0000000000
       242        81  TIP3  H1           -8.2594235794        1.8588484699        5.7302730539  CLST          81          1.0000000000
       243        81  TIP3  H2           -6.8045381956        2.1778256603        5.6188742854  CLST          81          1.0000000000
       244        82  TIP3  OH2           2.3275823235       -1.5550411716       11.2888903227  CLST          82          1.0000000000
       245        82  TIP3  H1            2.3464543846       -0.7910775453       10.6711999074  CLST          82          1.0000000000
       246        82  TIP3  H2            2.9180467103       -2.1648190591       10.7946965959  CLST          82          1.0000000000
       247        83  TIP3  OH2          10.1064384030        8.9362458413       -5.7062956440  CLST          83          1.0000000000
       248        83  TIP3  H1           10.0154763298        8.8699731755       -6.6825678973  CLST          83          1.0000000000
       249        83  TIP3  H2           10.3740273289        8.0210696010       -5.4757160821  CLST          83          1.0000000000
       250        84  TIP3  OH2         -13.5315683054        7.5393589714       -0.9550897071  CLST          84          1.0000000000
       251        84  TIP3  H1          -14.1385487160        6.8859100704       -0.5478978322  CLST          84          1.0000000000
       252        84  TIP3  H2          -12.6871974667        7.0532000483       -0.8654896446  CLST          84          1.0000000000
       253        85  TIP3  OH2           1.7503149381       -2.2422217189        8.2776590444  CLST          85          1.0000000000
       254        85  TIP3  H1            1.1904929206       -2.5969440385        7.5490047193  CLST          85          1.0000000000
       255        85  TIP3  H2            2.6248502160       -2.5532406904        7.9564093844  CLST          85          1.0000000000
       256        86  TIP3  OH2           7.9120459791       -8.7515908895        9.4389446885  CLST          86          1.0000000000
       257        86  TIP3  H1            8.8784957798       -8.9053353191        9.3756294837  CLST          86          1.0000000000
       258        86  TIP3  H2            7.9120200758       -8.1806483070       10.2343590999  CLST          86          1.0000000000
       259        87  TIP3  OH2           0.2034984569       -1.1230806076       12.9598605666  CLST          87          1.0000000000
       260        87  TIP3  H1            0.9596751755       -1.3246126175       12.3658965984  CLST          87          1.0000000000
       261        87  TIP3  H2            0.1429391864       -0.1535336908       12.8042893222  CLST          87          1.0000000000
       262        88  TIP3  OH2         -14.6692140716      -11.6228076976        6.8176574612  CLST          88          1.0000000000
       263        88  TIP3  H1          -13.7386721600      -11.9296294422        6.7924153361  CLST          88          1.0000000000
       264        88  TIP3  H2          -14.9500000000      -11.8701703912        7.7060793949  CLST          88          1.0000000000
       265        89  TIP3  OH2           6.8772148849       11.5811708377       -4.6567016236  CLST          89          1.0000000000
       266        89  TIP3  H1            5.9711384986       11.9198391186       -4.4803869116  CLST          89          1.0000000000
       267        89  TIP3  H2            7.0482766756       11.0881685330       -3.8247609410  CLST          89          1.0000000000
       268        90  TIP3  OH2          13.3673450701       -3.9379348543       -0.8894939130  CLST          90          1.0000000000
       269        90  TIP3  H1           13.1271924623       -4.3707518021       -1.7373986350  CLST          90          1.0000000000
       270        90  TIP3  H2           13.4996698883       -4.7338167054       -0.3193555694  CLST          90          1.0000000000
       271        91  TIP3  OH2          11.3697197774       11.3491451900       -6.0360325541  CLST          91          1.0000000000
       272        91  TIP3  H1           10.9790786654       10.4814197335       -5.7814735591  CLST          91          1.0000000000
       273        91  TIP3  H2           10.6797584776       11.9431511327       -5.6581976621  CLST          91          1.0000000000
       274        92  TIP3  OH2          -6.3633884529        3.4626994025        8.3123670432  CLST          92          1.0000000000
       275        92  TIP3  H1           -5.5156116951        3.5821058176        7.8364588164  CLST          92          1.0000000000
       276        92  TIP3  H2           -6.2266866781        2.5473739215        8.6408999910  CLST          92          1.0000000000
       277        93  TIP3  OH2           5.0422003895       -6.8168068597       12.0535559487  CLST          93          1.0000000000
       278        93  TIP3  H1            5.1884601555       -5.9068363505       12.3991627113  CLST          93          1.0000000000
       279        93  TIP3  H2            5.7532456085       -7.3276030081       12.4878745724  CLST          93          1.0000000000
       280        94  TIP3  OH2          -5.4684826559       11.6969679910        4.2884073978  CLST          94          1.0000000000
       281        94  TIP3  H1           -5.5898157520       11.5988708911        3.3211195565  CLST          94          1.0000000000
       282        94  TIP3  H2           -5.6472128506       10.7796474318        4.5660803312  CLST          94          1.0000000000
       283        95  TIP3  OH2           6.2967058696       10.9529142688       -0.1668491741  CLST          95          1.0000000000
       284        95  TIP3  H1            6.8535231112       10.7758484903       -0.9556105735  CLST          95          1.0000000000
       285        95  TIP3  H2            6.2596848645       10.0707806276        0.2541500896  CLST          95          1.0000000000
       286        96  TIP3  OH2          14.2024592461       -0.8011259756       13.0092371440  CLST          96          1.0000000000
       287        96  TIP3  H1           14.9500000000       -1.4227884743       13.1477989387  CLST          96          1.0000000000
       288        96  TIP3  H2           13.6853306777       -1.3098419014       12.3486684407  CLST          96          1.0000000000
       289        97  TIP3  OH2          -8.3591648657        8.3538897815       12.7924858811  CLST          97          1.0000000000
       290        97  TIP3  H1           -7.9184595539        8.1204249868       11.9458814488  CLST          97          1.0000000000
       291        97  TIP3  H2           -7.6668155330        8.9266255302       13.1710035538  CLST          97          1.0000000000
       292        98  TIP3  OH2           1.4311603021        3.7140941032       13.3132234716  CLST          98          1.0000000000
       293        98  TIP3  H1            1.9247493372        4.3582297192       12.7595430976  CLST          98          1.0000000000
       294        98  TIP3  H2            2.1844098237        3.2711122166       13.7643072704  CLST          98          1.0000000000
       295        99  TIP3  OH2         -12.4036347598       12.3709275646       -5.6236737864  CLST          99          1.0000000000
       296        99  TIP3  H1          -13.1691075133       12.4404412968       -6.2392628441  CLST          99          1.0000000000
       297        99  TIP3  H2          -11.8115620255       13.0415774960       -6.0250775183  CLST          99          1.0000000000
       298       100  TIP3  OH2           9.1263570140       -4.0548418019       -6.2836006721  CLST         100          1.0000000000
       299       100  TIP3  H1            8.3390219308       -3.8148855106       -5.7624484646  CLST         100          1.0000000000
       300       100  TIP3  H2            8.9731713935       -5.0181921307       -6.3845578752  CLST         100          1.0000000000
       301       101  TIP3  OH2          10.9844452698        2.3635150365       -9.9759426265  CLST         101          1.0000000000
       302       101  TIP3  H1           10.8618536092        3.1631077949       -9.4263001906  CLST         101          1.0000000000
       303       101  TIP3  H2           11.3333325974        1.7160106507       -9.3240999297  CLST         101          1.0000000000
       304       102  TIP3  OH2          -7.0850870563        2.2210376060      -12.3113133582  CLST         102          1.0000000000
       305       102  TIP3  H1           -7.7232609408        1.8584874403      -12.9673850603  CLST         102          1.0000000000
       306       102  TIP3  H2           -7.3506932819        3.1671621143      -12.2970044524  CLST         102          1.0000000000
       307       103  TIP3  OH2          -3.8002619500      -13.1241332247      -11.3591251529  CLST         103          1.0000000000
       308       103  TIP3  H1           -4.4430673428      -13.8330235103      -11.5638299402  CLST         103          1.0000000000
       309       103  TIP3  H2           -4.0234368355      -12.5041188341      -12.0819803272  CLST         103          1.0000000000
       310       104  TIP3  OH2         -10.6634089507      -10.8415537203        7.7710453457  CLST         104          1.0000000000
       311       104  TIP3  H1           -9.9009446840      -10.6639305708        7.1931277204  CLST         104          1.0000000000
       312       104  TIP3  H2          -10.2595665936      -10.7325984989        8.6581167380  CLST         104          1.0000000000
       313       105  TIP3  OH2           4.6627326507       -0.0699695579       13.9228387423  CLST         105          1.0000000000
       314       105  TIP3  H1            4.2174753427       -0.9397588249       14.0095429923  CLST         105          1.0000000000
       315       105  TIP3  H2            4.7810169578       -0.0236769950       12.9473950388  CLST         105          1.0000000000
       316       106  TIP3  OH2          14.4114542282       -1.5049560892        4.8338470530  CLST         106          1.0000000000
       317       106  TIP3  H1           14.7094117793       -0.6894277370        5.2791718338  CLST         106          1.0000000000
       318       106  TIP3  H2           13.6206431364       -1.1676467993        4.3604519575  CLST         106          1.0000000000
       319       107  TIP3  OH2           0.6582180099      -12.0833135566       -7.4013312479  CLST         107          1.0000000000
       320       107  TIP3  H1           -0.2986577238      -11.9067234560       -7.2669175366  CLST         107          1.0000000000
       321       107  TIP3  H2            0.9695967953      -12.0302102947       -6.4674299174  CLST         107          1.0000000000
       322       108  TIP3  OH2          -6.7315820072       -4.1031952890       13.9997864923  CLST         108          1.0000000000
       323       108  TIP3  H1           -6.7449328895       -5.0870138716       13.9938599778  CLST         108          1.0000000000
       324       108  TIP3  H2           -7.6398784275       -3.9259090999       13.6617697260  CLST         108          1.0000000000
       325       109  TIP3  OH2          -4.4269674370       -1.4536745704       10.9973472310  CLST         109          1.0000000000
       326       109  TIP3  H1           -4.5144006142       -2.3409636363       11.4078740693  CLST         109          1.0000000000
       327       109  TIP3  H2           -4.8828925048       -1.5832564186       10.1358995935  CLST         109          1.0000000000
       328       110  TIP3  OH2           1.4953442077       -3.7200388935       -3.2195164108  CLST         110          1.0000000000
       329       110  TIP3  H1            1.1762081617       -4.0525037937       -4.0902815845  CLST         110          1.0000000000
       330       110  TIP3  H2            0.6287133089       -3.4615464877       -2.8143626248  CLST         110          1.0000000000
       331       111  TIP3  OH2          -5.1852284350       -0.2435260923       -6.6364459529  CLST         111          1.0000000000
       332       111  TIP3  H1           -5.1586244270        0.5729587375       -7.1844614954  CLST         111          1.0000000000
       333       111  TIP3  H2           -4.5502693080       -0.7874249463       -7.1400236119  CLST         111          1.0000000000
       334       112  TIP3  OH2           1.3290542118      -11.7904887497       -4.7602839534  CLST         112          1.0000000000
       335       112  TIP3  H1            1.3484333235      -12.1287228465       -3.8437608019  CLST         112          1.0000000000
       336       112  TIP3  H2            1.5502361808      -10.8504474920       -4.6232393016  CLST         112          1.0000000000
       337       113  TIP3  OH2          13.6955425786        5.6405564114       12.6176220648  CLST         113          1.0000000000
       338       113  TIP3  H1           13.5676102247        5.9193826801       13.5489234751  CLST         113          1.0000000000
       339       113  TIP3  H2           13.8373209112        6.5084891236       12.1697303076  CLST         113          1.0000000000
       340       114  TIP3  OH2          -5.9597227731      -10.4527366651       -4.4375195572  CLST         114          1.0000000000
       341       114  TIP3  H1           -6.4895593534       -9.9720371761       -5.1030765256  CLST         114          1.0000000000
       342       114  TIP3  H2           -5.0637230157      -10.3328063331       -4.7803411377  CLST         114          1.0000000000
       343       115  TIP3  OH2           4.4176625718      -13.6177981809       -9.5277118261  CLST         115          1.0000000000
       344       115  TIP3  H1            3.4602963605      -13.7332120462       -9.3259248426  CLST         115          1.0000000000
       345       115  TIP3  H2            4.3735013715      -12.8883200125      -10.1936687675  CLST         115          1.0000000000
       346       116  TIP3  OH2           8.4558098479        5.5059391683      -14.0674062652  CLST         116          1.0000000000
       347       116  TIP3  H1            9.3049864647        5.0102550678      -14.0202817897  CLST         116          1.0000000000
       348       116  TIP3  H2            7.8955103500        4.9613859423      -13.4667586360  CLST         116          1.0000000000
       349       117  TIP3  OH2          -0.0316641407        1.5311594809       12.6084115844  CLST         117          1.0000000000
       350       117  TIP3  H1           -0.7441112272        1.8259202498       13.2150576264  CLST         117          1.0000000000
       351       117  TIP3  H2            0.6166379776        2.2547862093       12.7473254500  CLST         117          1.0000000000
       352       118  TIP3  OH2          12.1902418743       -9.4918691193       -6.6159768010  CLST         118          1.0000000000
       353       118  TIP3  H1           11.8040787872       -9.4296702951       -5.7189295943  CLST         118          1.0000000000
       354       118  TIP3  H2           12.7748164942       -8.7092424784       -6.6063989518  CLST         118          1.0000000000
       355       119  TIP3  OH2         -12.5853966095       -0.1359330966        4.7560948018  CLST         119          1.0000000000
       356       119  TIP3  H1          -13.4163808948        0.2818764592        5.0686850162  CLST         119          1.0000000000
       357       119  TIP3  H2          -12.1544473706       -0.2923317675        5.6199916925  CLST         119          1.0000000000
       358       120  TIP3  OH2         -12.0408619205        4.0332396199       -8.2471421118  CLST         120          1.0000000000
       359       120  TIP3  H1          -12.5406001032        4.6396157021       -8.8329462090  CLST         120          1.0000000000
       360       120  TIP3  H2          -12.7412038069        3.7419977678       -7.6247225759  CLST         120          1.0000000000
       361       121  TIP3  OH2          -5.9628009484       -6.9723962025        3.9508560103  CLST         121          1.0000000000
       362       121  TIP3  H1           -5.7059552243       -7.0867704480        3.0109358336  CLST         121          1.0000000000
       363       121  TIP3  H2           -6.9046513950       -6.7082104743        3.8685277780  CLST         121          1.0000000000
       364       122  TIP3  OH2           8.6222308690       -6.7692688372       -6.0467567539  CLST         122          1.0000000000
       365       122  TIP3  H1            7.6426397728       -6.7195631160       -5.9896461472  CLST         122          1.0000000000
       366       122  TIP3  H2            8.7058969336       -7.7227979157       -6.2579515384  CLST         122          1.0000000000
       367       123  TIP3  OH2          -6.9760910653      -10.0833188388        0.7952548385  CLST         123          1.0000000000
       368       123  TIP3  H1           -7.0899033740      -10.3455920096       -0.1413591299  CLST         123          1.0000000000
       369       123  TIP3  H2           -7.8776394511       -9.7411979221        1.0053261184  CLST         123          1.0000000000
       370       124  TIP3  OH2         -13.1827720428       -2.0825521768       -9.5918616193  CLST         124          1.0000000000
       371       124  TIP3  H1          -14.0181983593       -2.0615693851       -9.0763363591  CLST         124          1.0000000000
       372       124  TIP3  H2          -13.3853907222       -2.8452568180      -10.1732105078  CLST         124          1.0000000000
       373       125  TIP3  OH2           6.8212331385        2.4224820896       -5.2729907799  CLST         125          1.0000000000
       374       125  TIP3  H1            6.4387592623        1.8889203473       -4.5444023827  CLST         125          1.0000000000
       375       125  TIP3  H2            6.0494663596        2.4793854743       -5.8796301267  CLST         125          1.0000000000
       376       126  TIP3  OH2          11.8308567439      -10.1657369064        5.0623329052  CLST         126          1.0000000000
       377       126  TIP3  H1           12.1935544846      -10.8098537915        4.4122708997  CLST         126          1.0000000000
       378       126  TIP3  H2           11.4025103242      -10.7837100685        5.6886692548  CLST         126          1.0000000000
       379       127  TIP3  OH2          -9.7054317669       -5.3447692417       -4.4658866128  CLST         127          1.0000000000
       380       127  TIP3  H1           -9.5560438355       -4.8293367154       -3.6450510157  CLST         127          1.0000000000
       381       127  TIP3  H2           -9.1571018583       -6.1367051047       -4.2722317019  CLST         127          1.0000000000
       382       128  TIP3  OH2          -6.3104419472       -3.6180283729        6.7707258715  CLST         128          1.0000000000
       383       128  TIP3  H1           -5.6006972984       -4.2913795725        6.6647068569  CLST         128          1.0000000000
       384       128  TIP3  H2           -6.2947994109       -3.2372871675        5.8588299094  CLST         128          1.0000000000
       385       129  TIP3  OH2         -11.6309796087      -13.0576206728       -9.6275956604  CLST         129          1.0000000000
       386       129  TIP3  H1          -10.7197949953      -13.0040839855       -9.2716124726  CLST         129          1.0000000000
       387       129  TIP3  H2          -11.7516088712      -14.0080832691       -9.7128304564  CLST         129          1.0000000000
       388       130  TIP3  OH2           8.5604455251       -1.2919010148       13.9812446989  CLST         130          1.0000000000
       389       130  TIP3  H1            9.4501110561       -1.2376408263       14.3869374437  CLST         130          1.0000000000
       390       130  TIP3  H2            8.0880046280       -0.5565917222       14.4244870555  CLST         130          1.0000000000
       391       131  TIP3  OH2          -9.7304111132      -10.5800029333       -1.0881958409  CLST         131          1.0000000000
       392       131  TIP3  H1           -9.6855087129       -9.9878974402       -0.3092076475  CLST         131          1.0000000000
       393       131  TIP3  H2          -10.1367473463      -11.3672672520       -0.6697375261  CLST         131          1.0000000000
       394       132  TIP3  OH2           9.4027745947       -3.1213914370        9.7773093330  CLST         132          1.0000000000
       395       132  TIP3  H1            9.8099442703       -2.7878335317        8.9468537642  CLST         132          1.0000000000
       396       132  TIP3  H2            9.3552352538       -2.2963399647       10.3065566337  CLST         132          1.0000000000
       397       133  TIP3  OH2          -9.7961278913       -7.3777312466        7.9247650260  CLST         133          1.0000000000
       398       133  TIP3  H1           -9.0805062749       -7.8888187057        8.3589575366  CLST         133          1.0000000000
       399       133  TIP3  H2           -9.2479199050       -6.7108007509        7.4543473260  CLST         133          1.0000000000
       400       134  TIP3  OH2          -9.1763190554      -11.7798417373       14.8180102691  CLST         134          1.0000000000
       401       134  TIP3  H1           -9.3855482493      -11.8588522977       13.8651742026  CLST         134          1.0000000000
       402       134  TIP3  H2           -8.7858710420      -10.8755590689       14.8444486494  CLST         134          1.0000000000
       403       135  TIP3  OH2          -8.3178366798       10.5784311277        3.5042103365  CLST         135          1.0000000000
       404       135  TIP3  H1           -8.2326134773       10.2292435535        2.5974956026  CLST         135          1.0000000000
       405       135  TIP3  H2           -7.6251769211       10.0547329935        3.9542317918  CLST         135          1.0000000000
       406       136  TIP3  OH2          -4.8910517340       12.9746719396      -11.0941304919  CLST         136          1.0000000000
       407       136  TIP3  H1           -4.6923756224       13.1681275735      -10.1499289311  CLST         136          1.0000000000
       408       136  TIP3  H2           -5.2580569044       13.8289556398      -11.3972514206  CLST         136          1.0000000000
       409       137  TIP3  OH2          -5.8615326210      -10.3929865988        7.7369747822  CLST         137          1.0000000000
       410       137  TIP3  H1           -5.7976056062      -10.0973341949        6.8056976025  CLST         137          1.0000000000
       411       137  TIP3  H2           -5.0046597586      -10.8538909140        7.8664592343  CLST         137          1.0000000000
       412       138  TIP3  OH2          10.6875906217        7.2957290629       10.9656282742  CLST         138          1.0000000000
       413       138  TIP3  H1           10.1706025364        6.8251533261       11.6484689725  CLST         138          1.0000000000
       414       138  TIP3  H2           11.2312662240        7.8603829245       11.5437807804  CLST         138          1.0000000000
       415       139  TIP3  OH2           2.5580729725        9.7247061493       12.1048812000  CLST         139          1.0000000000
       416       139  TIP3  H1            3.4849676415        9.8236811549       11.7910948676  CLST         139          1.0000000000
       417       139  TIP3  H2            2.6501730513        8.9698046013       12.7259988008  CLST         139          1.0000000000
       418       140  TIP3  OH2          -3.1915889129       -1.4349303555       -8.1259128844  CLST         140          1.0000000000
       419       140  TIP3  H1           -2.6437233438       -0.6171673606       -8.1220766627  CLST         140          1.0000000000
       420       140  TIP3  H2           -2.4801844133       -2.0948449039       -8.2908272825  CLST         140          1.0000000000
       421       141  TIP3  OH2         -12.5317322010        5.0668326930       11.9107868989  CLST         141          1.0000000000
       422       141  TIP3  H1          -11.8031878938        5.5890633267       12.3069401511  CLST         141          1.0000000000
       423       141  TIP3  H2          -13.3075711833        5.5176099880       12.2565037889  CLST         141          1.0000000000
       424       142  TIP3  OH2          14.5830329083       -6.3238101874        5.5665824923  CLST         142          1.0000000000
       425       142  TIP3  H1           14.2511985806       -6.9494085619        4.8811178340  CLST         142          1.0000000000
       426       142  TIP3  H2           13.8954121288       -6.4757659510        6.2452765916  CLST         142          1.0000000000
       427       143  TIP3  OH2           5.8219400412       -6.2963771645        2.0409642593  CLST         143          1.0000000000
       428       143  TIP3  H1            6.4256461429       -6.3740562576        1.2700381029  CLST         143          1.0000000000
       429       143  TIP3  H2            4.9893762832       -6.0595407827        1.5794493242  CLST         143          1.0000000000
       430       144  TIP3  OH2          -1.3536565547      -13.0622690897        8.0248893649  CLST         144          1.0000000000
       431       144  TIP3  H1           -1.1837376203      -13.0863305014        7.0567570619  CLST         144          1.0000000000
       432       144  TIP3  H2           -1.0091524970      -13.9488657992        8.2537922884  CLST         144          1.0000000000
       433       145  TIP3  OH2           2.4928466898        7.4098030690       13.5813845168  CLST         145          1.0000000000
       434       145  TIP3  H1            1.5166474675        7.3809514471       13.6668792618  CLST         145          1.0000000000
       435       145  TIP3  H2            2.6316801944        6.6925579638       12.9251798902  CLST         145          1.0000000000
       436       146  TIP3  OH2          -5.2488698410       10.8201683811       -7.9230313277  CLST         146          1.0000000000
       437       146  TIP3  H1           -4.9201614030       11.6712285022       -8.2821230597  CLST         146          1.0000000000
       438       146  TIP3  H2           -6.2178169298       10.9633650984       -7.9415454883  CLST         146          1.0000000000
       439       147  TIP3  OH2           1.0713069285        2.7447912990       -4.6320586076  CLST         147          1.0000000000
       440       147  TIP3  H1            0.3999296684        2.9620279371       -3.9545941065  CLST         147          1.0000000000
       441       147  TIP3  H2            0.5699182038        2.8901383624       -5.4584180098  CLST         147          1.0000000000
       442       148  TIP3  OH2           7.3542437556        7.5214520568       -2.3570084470  CLST         148          1.0000000000
       443       148  TIP3  H1            7.7650447722        7.3785819801       -1.4804327813  CLST         148          1.0000000000
       444       148  TIP3  H2            6.6773149003        6.8083805081       -2.3559991469  CLST         148          1.0000000000
       445       149  TIP3  OH2          -4.1710478827      -13.3803744185       10.9760030431  CLST         149          1.0000000000
       446       149  TIP3  H1           -4.1138660786      -12.5917580739       11.5569542635  CLST         149          1.0000000000
       447       149  TIP3  H2           -3.5962400825      -14.0055718911       11.4316311002  CLST         149          1.0000000000
       448       150  TIP3  OH2          10.8109588507        1.2220250635       -1.8523462154  CLST         150          1.0000000000
       449       150  TIP3  H1           10.4645405956        1.4314869243       -0.9573661528  CLST         150          1.0000000000
       450       150  TIP3  H2            9.9582733873        1.0224491556       -2.3089869925  CLST         150          1.0000000000
       451       151  TIP3  OH2           3.2191312825      -11.5836404710        4.4778219765  CLST         151          1.0000000000
       452       151  TIP3  H1            3.1769965842      -12.5491828345        4.6181322585  CLST         151          1.0000000000
       453       151  TIP3  H2            2.9105996046      -11.5281108457        3.5497782665  CLST         151          1.0000000000
       454       152  TIP3  OH2           0.0373139381        6.0630165276       -5.8201836781  CLST         152          1.0000000000
       455       152  TIP3  H1            0.4002371346        6.9641623612       -5.9200725790  CLST         152          1.0000000000
       456       152  TIP3  H2            0.8065359218        5.5373601628       -6.1142768484  CLST         152          1.0000000000
       457       153  TIP3  OH2          -1.3474961917       10.2867314078       -7.9134863425  CLST         153          1.0000000000
       458       153  TIP3  H1           -0.3931477145       10.5051732273       -7.9755259848  CLST         153          1.0000000000
       459       153  TIP3  H2           -1.7175619296       11.1818964200       -8.0269831638  CLST         153          1.0000000000
       460       154  TIP3  OH2         -11.2788696577       -7.4060222663       -0.6274138687  CLST         154          1.0000000000
       461       154  TIP3  H1          -11.7991359118       -6.6263446716       -0.3326405333  CLST         154          1.0000000000
       462       154  TIP3  H2          -10.3625054079       -7.0885527191       -0.4727262761  CLST         154          1.0000000000
       463       155  TIP3  OH2          10.2094431913       -4.7480650923       13.8620318078  CLST         155          1.0000000000
       464       155  TIP3  H1           10.9954998386       -4.1641777447       13.9095474637  CLST         155          1.0000000000
       465       155  TIP3  H2           10.2435497649       -4.9821574734       12.9070091574  CLST         155          1.0000000000
       466       156  TIP3  OH2          13.6584924437        2.0363297289        0.0803352004  CLST         156          1.0000000000
       467       156  TIP3  H1           13.1017261030        1.2859662563        0.3875433222  CLST         156          1.0000000000
       468       156  TIP3  H2           13.9331876080        1.6886955079       -0.7880550309  CLST         156          1.0000000000
       469       157  TIP3  OH2           0.3291814582       -5.4963533642       -8.1712332298  CLST         157          1.0000000000
       470       157  TIP3  H1            1.1121646500       -5.2001306523       -8.6835498750  CLST         157          1.0000000000
       471       157  TIP3  H2            0.2765576427       -6.4347541415       -8.4588567177  CLST         157          1.0000000000
       472       158  TIP3  OH2          -6.4235499603       -1.2500720667       -1.8882479011  CLST         158          1.0000000000
       473       158  TIP3  H1           -7.2796224880       -1.0350562139       -2.3178688002  CLST         158          1.0000000000
       474       158  TIP3  H2           -6.0183685447       -1.8042040307       -2.5948931947  CLST         158          1.0000000000
       475       159  TIP3  OH2           7.7003616335      -11.0124358031        7.7197038358  CLST         159          1.0000000000
       476       159  TIP3  H1            6.9460396915      -10.9377641412        7.0995884056  CLST         159          1.0000000000
       477       159  TIP3  H2            7.6435268785      -10.1584885794        8.1943218553  CLST         159          1.0000000000
       478       160  TIP3  OH2           4.5792041143       -9.7339076841        2.3647003888  CLST         160          1.0000000000
       479       160  TIP3  H1            4.0957499038       -9.3025920806        3.1000308978  CLST         160          1.0000000000
       480       160  TIP3  H2            5.3283096328      -10.1228503557        2.8623628807  CLST         160          1.0000000000
       481       161  TIP3  OH2           3.4021631222       -7.2479523027       -3.0687941218  CLST         161          1.0000000000
       482       161  TIP3  H1            4.1398276286       -7.5447714027       -2.4915333108  CLST         161          1.0000000000
       483       161  TIP3  H2            2.6214381448       -7.4107610516       -2.4956320478  CLST         161          1.0000000000
       484       162  TIP3  OH2           6.9341068312      -10.4132088225        3.6459661171  CLST         162          1.0000000000
       485       162  TIP3  H1            7.7455449813      -10.9624281932        3.6230008033  CLST         162          1.0000000000
       486       162  TIP3  H2            7.3079427844       -9.5166950504        3.4976550548  CLST         162          1.0000000000
       487       163  TIP3  OH2         -12.9534573795        0.9339081272        2.2247816142  CLST         163          1.0000000000
       488       163  TIP3  H1          -13.1419900024        1.8786553810        2.4078016520  CLST         163          1.0000000000
       489       163  TIP3  H2          -12.6404237087        0.6231476694        3.1023141571  CLST         163          1.0000000000
       490       164  TIP3  OH2           8.3809657735        2.4841698341       10.0414327515  CLST         164          1.0000000000
       491       164  TIP3  H1            8.2164417581        3.2503947902        9.4509251285  CLST         164          1.0000000000
       492       164  TIP3  H2            9.3082251777        2.2587802074        9.7994239636  CLST         164          1.0000000000
       493       165  TIP3  OH2          14.4753130809        4.1093427409        4.1353397777  CLST         165          1.0000000000
       494       165  TIP3  H1           13.5691247446        4.4638405913        4.2300008534  CLST         165          1.0000000000
       495       165  TIP3  H2           14.2586836382        3.2382810594        3.7242247971  CLST         165          1.0000000000
       496       166  TIP3  OH2          -7.1416598810      -12.7146131131        5.2220867966  CLST         166          1.0000000000
       497       166  TIP3  H1           -6.9496997222      -12.3928520636        4.3122128745  CLST         166          1.0000000000
       498       166  TIP3  H2           -7.4901451116      -11.9011592651        5.6306437849  CLST         166          1.0000000000
       499       167  TIP3  OH2           0.5045635849       -8.0653373626       -9.1481046977  CLST         167          1.0000000000
       500       167  TIP3  H1            0.3164257566       -8.4315635286      -10.0303344828  CLST         167          1.0000000000
       501       167  TIP3  H2            1.4847045312       -8.1155915653       -9.1126418519  CLST         167          1.0000000000
       502       168  TIP3  OH2          -2.3810265620       -1.9298294250        2.5718142160  CLST         168          1.0000000000
       503       168  TIP3  H1           -1.9423794555       -1.8841694583        3.4519118791  CLST         168          1.0000000000
       504       168  TIP3  H2           -2.6912181599       -2.8579308687        2.5887359848  CLST         168          1.0000000000
       505       169  TIP3  OH2           0.8577086359       11.7383285204       12.7866413146  CLST         169          1.0000000000
       506       169  TIP3  H1            1.5261109847       11.0379434214       12.6133136272  CLST         169          1.0000000000
       507       169  TIP3  H2            1.4412981817       12.4723639978       13.0627624259  CLST         169          1.0000000000
       508       170  TIP3  OH2         -14.4718968276      -12.1048486235        4.1511311183  CLST         170          1.0000000000
       509       170  TIP3  H1          -13.6137592112      -12.2923260009        4.5719790999  CLST         170          1.0000000000
       510       170  TIP3  H2          -14.9500000000      -11.8230344424        4.9586639582  CLST         170          1.0000000000
       511       171  TIP3  OH2          -9.9135701446        2.9844142889        2.7537688845  CLST         171          1.0000000000
       512       171  TIP3  H1           -8.9358325491        3.0593303978        2.7118281072  CLST         171          1.0000000000
       513       171  TIP3  H2          -10.0004388666        2.6982225744        3.6876089742  CLST         171          1.0000000000
       514       172  TIP3  OH2          13.3123678219       -7.0794502982      -11.8617234207  CLST         172          1.0000000000
       515       172  TIP3  H1           13.4646002485       -7.1758039029      -10.8975843283  CLST         172          1.0000000000
       516       172  TIP3  H2           12.6331141637       -7.7700118400      -12.0191018531  CLST         172          1.0000000000
       517       173  TIP3  OH2         -12.5935788697       -5.1629912633        2.8478180428  CLST         173          1.0000000000
       518       173  TIP3  H1          -12.8373756860       -4.2470896308        3.1008178941  CLST         173          1.0000000000
       519       173  TIP3  H2          -12.9232343596       -5.2027595071        1.9313231843  CLST         173          1.0000000000
       520       174  TIP3  OH2           6.0818420392      -14.3058320179        5.5740508987  CLST         174          1.0000000000
       521       174  TIP3  H1            5.9671595623      -14.9500000000        6.2999381902  CLST         174          1.0000000000
       522       174  TIP3  H2            5.8607298815      -13.4771172544        6.0146341368  CLST         174          1.0000000000
       523       175  TIP3  OH2           3.7753082755       -3.5594916973        7.0661313848  CLST         175          1.0000000000
       524       175  TIP3  H1            3.5693757763       -4.5151355581        7.1432240427  CLST         175          1.0000000000
       525       175  TIP3  H2            4.7623719379       -3.5763467204        7.0685879953  CLST         175          1.0000000000
       526       176  TIP3  OH2           8.7635208266        2.4372037681      -11.5604481437  CLST         176          1.0000000000
       527       176  TIP3  H1            9.5140469187        2.4323277207      -10.9342929851  CLST         176          1.0000000000
       528       176  TIP3  H2            8.8224766650        1.5252968768      -11.9017707944  CLST         176          1.0000000000
       529       177  TIP3  OH2          -4.0634318876       10.2807178327        6.7444095926  CLST         177          1.0000000000
       530       177  TIP3  H1           -3.1690576018       10.6791795216        6.7814609160  CLST         177          1.0000000000
       531       177  TIP3  H2           -3.9426786456        9.6548059929        6.0093697647  CLST         177          1.0000000000
       532       178  TIP3  OH2           3.5670554556       -5.1163703189        1.0250122933  CLST         178          1.0000000000
       533       178  TIP3  H1            2.9276952550       -5.2014054092        0.2827932504  CLST         178          1.0000000000
       534       178  TIP3  H2            2.9423852896       -5.2446069969        1.7744397618  CLST         178          1.0000000000
       535       179  TIP3  OH2           3.2116300306       -9.8694081440       -0.0546952230  CLST         179          1.0000000000
       536       179  TIP3  H1            2.2938925857       -9.5965764804        0.1473433807  CLST         179          1.0000000000
       537       179  TIP3  H2            3.6089724041       -9.8453132580        0.8382861432  CLST         179          1.0000000000
       538       180  TIP3  OH2          -2.2393226446       -3.7522228048        7.5379064896  CLST         180          1.0000000000
       539       180  TIP3  H1           -2.2990807625       -3.1100232757        8.2790559075  CLST         180          1.0000000000
       540       180  TIP3  H2           -2.9443680907       -3.4272637438        6.9387714625  CLST         180          1.0000000000
       541       181  TIP3  OH2         -12.3955562633       -0.0079402563      -11.2411944205  CLST         181          1.0000000000
       542       181  TIP3  H1          -11.4707045473        0.0328125872      -10.9123932828  CLST         181          1.0000000000
       543       181  TIP3  H2          -12.7617282193       -0.6647629595      -10.6111839694  CLST         181          1.0000000000
       544       182  TIP3  OH2         -10.0303831630      -12.6487496526        4.8708011581  CLST         182          1.0000000000
       545       182  TIP3  H1           -9.2892164121      -13.2697581703        4.9375261201  CLST         182          1.0000000000
       546       182  TIP3  H2           -9.5941169132      -11.8343601681        5.2030682563  CLST         182          1.0000000000
       547       183  TIP3  OH2          11.7024885547        4.2453707599        4.2874230778  CLST         183          1.0000000000
       548       183  TIP3  H1           11.6444657531        4.4910862052        3.3399243829  CLST         183          1.0000000000
       549       183  TIP3  H2           10.7614103411        4.3400027335        4.5493926653  CLST         183          1.0000000000
       550       184  TIP3  OH2          -0.3328581935       -0.4458697476        8.2958807855  CLST         184          1.0000000000
       551       184  TIP3  H1            0.5174610227       -0.9235047522        8.3587355152  CLST         184          1.0000000000
       552       184  TIP3  H2           -0.9253242795       -1.0471387032        8.7930801337  CLST         184          1.0000000000
       553       185  TIP3  OH2           9.3135651824       12.8277238615       -4.9950070687  CLST         185          1.0000000000
       554       185  TIP3  H1            8.4501061217       12.3884975853       -4.8331363058  CLST         185          1.0000000000
       555       185  TIP3  H2            9.0075577080       13.6238705869       -5.4777262268  CLST         185          1.0000000000
       556       186  TIP3  OH2          12.2233404175       -0.2897386084        3.6757673797  CLST         186          1.0000000000
       557       186  TIP3  H1           12.1576285795       -0.3058037156        2.6964822119  CLST         186          1.0000000000
       558       186  TIP3  H2           12.3238968887        0.6640907665        3.8309267018  CLST         186          1.0000000000
       559       187  TIP3  OH2         -10.5047649059       -7.5596566723      -11.3312558569  CLST         187          1.0000000000
       560       187  TIP3  H1          -10.8929597760       -7.3876040909      -10.4447117309  CLST         187          1.0000000000
       561       187  TIP3  H2          -10.0822786384       -6.7014060385      -11.5285045108  CLST         187          1.0000000000
       562       188  TIP3  OH2         -14.9220018115       -0.6472725803        1.8302410518  CLST         188          1.0000000000
       563       188  TIP3  H1          -14.0773893261       -0.1597034588        1.9115704540  CLST         188          1.0000000000
       564       188  TIP3  H2          -14.9500000000       -0.8371245442        0.8642801028  CLST         188          1.0000000000
       565       189  TIP3  OH2          14.0032742294       -0.7869008466      -13.9718848203  CLST         189          1.0000000000
       566       189  TIP3  H1           14.9500000000       -0.5949652131      -13.8066601970  CLST         189          1.0000000000
       567       189  TIP3  H2           13.9938178666       -0.7788279265      -14.9500000000  CLST         189          1.0000000000
       568       190  TIP3  OH2           1.1415096652       -8.0033051279        3.1932990967  CLST         190          1.0000000000
       569       190  TIP3  H1            1.9130403157       -8.3302098613        3.7006507951  CLST         190          1.0000000000
       570       190  TIP3  H2            1.4007250304       -7.0612985598        3.1099578421  CLST         190          1.0000000000
       571       191  TIP3  OH2          -0.8489494963       14.1000377176       -4.0582363305  CLST         191          1.0000000000
       572       191  TIP3  H1           -1.7011539442       13.6129527182       -4.1167949795  CLST         191          1.0000000000
       573       191  TIP3  H2           -1.1826987498       14.9500000000       -3.7118882916  CLST         191          1.0000000000
       574       192  TIP3  OH2          -5.0501583990        0.6961071633       -0.5150551083  CLST         192          1.0000000000
       575       192  TIP3  H1           -5.4928200007        0.0753734739       -1.1338160018  CLST         192          1.0000000000
       576       192  TIP3  H2           -5.8092905186        0.8444827816        0.0945449786  CLST         192          1.0000000000
       577       193  TIP3  OH2         -12.4486427701      -12.2274168708        6.1304749594  CLST         193          1.0000000000
       578       193  TIP3  H1          -11.6718927631      -12.6053692977        5.6774446299  CLST         193          1.0000000000
       579       193  TIP3  H2          -11.9788184185      -11.6850716352        6.7984884775  CLST         193          1.0000000000
       580       194  TIP3  OH2          12.6332847743       11.6008398416      -10.3526328177  CLST         194          1.0000000000
       581       194  TIP3  H1           12.8591294925       10.7822089775      -10.8289384850  CLST         194          1.0000000000
       582       194  TIP3  H2           13.1668695059       11.5013161895       -9.5408200167  CLST         194          1.0000000000
       583       195  TIP3  OH2           4.9669985714        2.3750521057        4.0579561685  CLST         195          1.0000000000
       584       195  TIP3  H1            4.4309653635        2.9444733369        3.4677389484  CLST         195          1.0000000000
       585       195  TIP3  H2            5.2995490320        1.7227086023        3.4021332842  CLST         195          1.0000000000
       586       196  TIP3  OH2           6.8238764521        6.2613978608       12.1304473098  CLST         196          1.0000000000
       587       196  TIP3  H1            7.7648652849        6.0901353510       12.3415623445  CLST         196          1.0000000000
       588       196  TIP3  H2            6.4958760244        6.4692167507       13.0324990777  CLST         196          1.0000000000
       589       197  TIP3  OH2          -3.9281507320       -9.4231691007        3.3319873036  CLST         197          1.0000000000
       590       197  TIP3  H1           -4.3829719249       -8.9091972280        2.6310202934  CLST         197          1.0000000000
       591       197  TIP3  H2           -3.0798870830       -8.9248535706        3.3708840706  CLST         197          1.0000000000
       592       198  TIP3  OH2          -4.3373430859       -8.4827406926       -6.1550528380  CLST         198          1.0000000000
       593       198  TIP3  H1           -4.0855729779       -8.7327958711       -7.0715485127  CLST         198          1.0000000000
       594       198  TIP3  H2           -5.3073038139       -8.6179030692       -6.2263260241  CLST         198          1.0000000000
       595       199  TIP3  OH2          10.7876296716        7.2522654177       -2.3772129573  CLST         199          1.0000000000
       596       199  TIP3  H1           10.6120211917        8.1849071127       -2.1278576681  CLST         199          1.0000000000
       597       199  TIP3  H2           11.6381684229        7.1262613108       -1.8909952242  CLST         199          1.0000000000
       598       200  TIP3  OH2          -4.0679127589       -8.0823777632       -1.3659226064  CLST         200          1.0000000000
       599       200  TIP3  H1           -3.5363788361       -8.8880371271       -1.5182383646  CLST         200          1.0000000000
       600       200  TIP3  H2           -3.5125339525       -7.4507109749       -1.8759501848  CLST         200          1.0000000000
       601       201  TIP3  OH2          13.4663363922       -9.6762369105       12.8470350169  CLST         201          1.0000000000
       602       201  TIP3  H1           13.0325832190       -9.0574316040       12.2203592419  CLST         201          1.0000000000
       603       201  TIP3  H2           13.3380588314       -9.1724510811       13.6678459907  CLST         201          1.0000000000
       604       202  TIP3  OH2          -2.9862303327       -9.4609857916        7.0454676686  CLST         202          1.0000000000
       605       202  TIP3  H1           -2.3287713468       -9.8195063920        7.6705537322  CLST         202          1.0000000000
       606       202  TIP3  H2           -3.0966239820      -10.2162561698        6.4300838301  CLST         202          1.0000000000
       607       203  TIP3  OH2           9.8766318291        3.6051284605       13.6735976331  CLST         203          1.0000000000
       608       203  TIP3  H1            9.0224685700        3.2567246073       13.3294452169  CLST         203          1.0000000000
       609       203  TIP3  H2           10.0158210289        2.9796227190       14.4202011030  CLST         203          1.0000000000
       610       204  TIP3  OH2          -5.3165546779        6.2103309257        5.6614257786  CLST         204          1.0000000000
       611       204  TIP3  H1           -6.1823344429        6.6414703016        5.7646770193  CLST         204          1.0000000000
       612       204  TIP3  H2           -4.8461279356        6.6094747219        6.4338380968  CLST         204          1.0000000000
       613       205  TIP3  OH2          -2.1824268546        1.5346530803       -5.0423610346  CLST         205          1.0000000000
       614       205  TIP3  H1           -1.4147938467        1.7393793991       -5.6043932480  CLST         205          1.0000000000
       615       205  TIP3  H2           -2.8252490290        2.1556604652       -5.4444475049  CLST         205          1.0000000000
       616       206  TIP3  OH2          -8.6497905129       -0.8462594569        4.7634361810  CLST         206          1.0000000000
       617       206  TIP3  H1           -8.8486468497       -1.2100910375        5.6498451342  CLST         206          1.0000000000
       618       206  TIP3  H2           -8.2300554877       -0.0013373444        5.0270076798  CLST         206          1.0000000000
       619       207  TIP3  OH2          -7.8625211126        9.2870249975        1.0195284144  CLST         207          1.0000000000
       620       207  TIP3  H1           -7.2483899825        8.5107422318        1.0099916858  CLST         207          1.0000000000
       621       207  TIP3  H2           -8.6995880098        8.8585906701        1.3235134865  CLST         207          1.0000000000
       622       208  TIP3  OH2           9.0589523922       13.1672500765      -13.0473778243  CLST         208          1.0000000000
       623       208  TIP3  H1            8.6452025966       13.8457280758      -13.5924230537  CLST         208          1.0000000000
       624       208  TIP3  H2            9.1398009769       12.4195425536      -13.6884001287  CLST         208          1.0000000000
       625       209  TIP3  OH2          -6.8993071743       -6.8203759714       14.0439881306  CLST         209          1.0000000000
       626       209  TIP3  H1           -7.6740078704       -6.7305850009       14.6426913222  CLST         209          1.0000000000
       627       209  TIP3  H2           -7.0622727362       -7.7249247647       13.7114450338  CLST         209          1.0000000000
       628       210  TIP3  OH2          -2.0002007100        1.6462085777        8.1397708474  CLST         210          1.0000000000
       629       210  TIP3  H1           -1.3164528593        0.9361926022        8.0792826098  CLST         210          1.0000000000
       630       210  TIP3  H2           -2.1385996711        1.5950956488        9.1079498225  CLST         210          1.0000000000
       631       211  TIP3  OH2          -0.7475867024        0.0938032558       -3.0483729872  CLST         211          1.0000000000
       632       211  TIP3  H1           -1.5180405575       -0.3450718275       -2.6281719748  CLST         211          1.0000000000
       633       211  TIP3  H2           -1.2082567207        0.7014679868       -3.6613174605  CLST         211          1.0000000000
       634       212  TIP3  OH2           6.8629635099        3.0929581590        5.9082396712  CLST         212          1.0000000000
       635       212  TIP3  H1            7.0431862849        2.2069766929        6.3065236485  CLST         212          1.0000000000
       636       212  TIP3  H2            6.1802513521        2.8222821240        5.2498512974  CLST         212          1.0000000000
       637       213  TIP3  OH2           1.5856389522       -5.1411160909       -0.8259589051  CLST         213          1.0000000000
       638       213  TIP3  H1            1.6325177974       -4.6223367951       -1.6530557266  CLST         213          1.0000000000
       639       213  TIP3  H2            1.3162117968       -6.0200969897       -1.1746232229  CLST         213          1.0000000000
       640       214  TIP3  OH2           2.3869520969       -6.5762304331      -11.7916296885  CLST         214          1.0000000000
       641       214  TIP3  H1            2.6937039140       -7.4956965580      -11.8120167134  CLST         214          1.0000000000
       642       214  TIP3  H2            3.1606820619       -6.1635619427      -11.3587045387  CLST         214          1.0000000000
       643       215  TIP3  OH2         -11.9551587905        2.5774688998      -12.2402234862  CLST         215          1.0000000000
       644       215  TIP3  H1          -12.2240719768        1.7346705610      -11.8312961516  CLST         215          1.0000000000
       645       215  TIP3  H2          -11.6736842621        2.2648680420      -13.1202134391  CLST         215          1.0000000000
       646       216  TIP3  OH2          11.0228951931       -6.8967195478       -4.6392728096  CLST         216          1.0000000000
       647       216  TIP3  H1           10.9138756896       -7.8353167436       -4.3693924027  CLST         216          1.0000000000
       648       216  TIP3  H2           10.1782818837       -6.7396625739       -5.1129543764  CLST         216          1.0000000000
       649       217  TIP3  OH2          -6.2292696833        8.9947080161        4.4830068144  CLST         217          1.0000000000
       650       217  TIP3  H1           -5.2756922670        8.7624943417        4.4347006816  CLST         217          1.0000000000
       651       217  TIP3  H2           -6.6302656627        8.2356856085        3.9913936849  CLST         217          1.0000000000
       652       218  TIP3  OH2           6.2768374164       -7.2967476870       -8.6724619728  CLST         218          1.0000000000
       653       218  TIP3  H1            6.4933950711       -8.2504074803       -8.7541682368  CLST         218          1.0000000000
       654       218  TIP3  H2            6.0898730221       -7.2591414903       -7.7147334943  CLST         218          1.0000000000
       655       219  TIP3  OH2           2.1569639714      -13.2853523285        7.3685306294  CLST         219          1.0000000000
       656       219  TIP3  H1            1.6611302664      -12.7710545505        8.0309078087  CLST         219          1.0000000000
       657       219  TIP3  H2            3.0679384737      -13.1010376171        7.6767879797  CLST         219          1.0000000000
       658       220  TIP3  OH2           2.3918136646        1.6441039043      -10.4227381424  CLST         220          1.0000000000
       659       220  TIP3  H1            2.2134936008        2.0736568882      -11.2870983975  CLST         220          1.0000000000
       660       220  TIP3  H2            3.3596571501        1.4954425715      -10.5035800418  CLST         220          1.0000000000
       661       221  TIP3  OH2           1.5724211329       -0.8485871015        4.0254333387  CLST         221          1.0000000000
       662       221  TIP3  H1            0.7738376055       -0.5046074895        3.5708408449  CLST         221          1.0000000000
       663       221  TIP3  H2            1.8585462818       -0.0637351892        4.5368474776  CLST         221          1.0000000000
       664       222  TIP3  OH2          12.0110384018        0.0209089738        0.8888150341  CLST         222          1.0000000000
       665       222  TIP3  H1           11.8779881055       -0.6322128754        0.1680977257  CLST         222          1.0000000000
       666       222  TIP3  H2           11.1896503275        0.5534745712        0.8213379566  CLST         222          1.0000000000
       667       223  TIP3  OH2           1.3078648687      -10.4603611836      -12.6245072608  CLST         223          1.0000000000
       668       223  TIP3  H1            1.3174858808      -10.7342438915      -11.6785219296  CLST         223          1.0000000000
       669       223  TIP3  H2            0.5929968278       -9.7965831677      -12.5737363295  CLST         223          1.0000000000
       670       224  TIP3  OH2          -9.4150476466        6.8561279777      -12.5160391898  CLST         224          1.0000000000
       671       224  TIP3  H1          -10.1510837535        6.2871527197      -12.2004184375  CLST         224          1.0000000000
       672       224  TIP3  H2           -8.7248657691        6.1728662654      -12.6026957327  CLST         224          1.0000000000
       673       225  TIP3  OH2          13.0063174775        4.1355220276       -7.8681725575  CLST         225          1.0000000000
       674       225  TIP3  H1           12.1630739488        4.4451050872       -8.2739378185  CLST         225          1.0000000000
       675       225  TIP3  H2           12.6444634098        3.5163892044       -7.1960689175  CLST         225          1.0000000000
       676       226  TIP3  OH2           5.0454667768        5.2122280905       10.3160399529  CLST         226          1.0000000000
       677       226  TIP3  H1            5.7347957787        5.7023287074       10.8138254863  CLST         226          1.0000000000
       678       226  TIP3  H2            5.0996312726        4.3534000073       10.7941879787  CLST         226          1.0000000000
       679       227  TIP3  OH2          -5.7661426781        1.1063108939        9.5440298053  CLST         227          1.0000000000
       680       227  TIP3  H1           -6.3065742411        0.9205000622       10.3429365580  CLST         227          1.0000000000
       681       227  TIP3  H2           -5.6086093596        0.2007279194        9.2159971824  CLST         227          1.0000000000
       682       228  TIP3  OH2          -8.7085728842       -5.2750021728       10.6578559403  CLST         228          1.0000000000
       683       228  TIP3  H1           -9.0468254208       -4.7913513561        9.8735188207  CLST         228          1.0000000000
       684       228  TIP3  H2           -7.8085509257       -5.5382173830       10.3559778450  CLST         228          1.0000000000
       685       229  TIP3  OH2          12.3100523814        8.7393352389      -14.0907181937  CLST         229          1.0000000000
       686       229  TIP3  H1           12.3966494276        9.6746329612      -14.3897147917  CLST         229          1.0000000000
       687       229  TIP3  H2           12.4101700446        8.8607160851      -13.1314709302  CLST         229          1.0000000000
       688       230  TIP3  OH2          -9.7659839103       -4.0629548039        8.3872186639  CLST         230          1.0000000000
       689       230  TIP3  H1           -9.3090166620       -4.5804152965        7.6893185468  CLST         230          1.0000000000
       690       230  TIP3  H2          -10.6771855805       -4.4063932146        8.2786121467  CLST         230          1.0000000000
       691       231  TIP3  OH2          -0.6897330388        2.7587819736      -12.4967443587  CLST         231          1.0000000000
       692       231  TIP3  H1            0.2616118463        2.6007865563      -12.6465911468  CLST         231          1.0000000000
       693       231  TIP3  H2           -1.0985995712        2.0713849731      -13.0415571867  CLST         231          1.0000000000
       694       232  TIP3  OH2           1.6530151754      -14.8143330046      -12.1860940371  CLST         232          1.0000000000
       695       232  TIP3  H1            2.5179642664      -14.9500000000      -11.7417301661  CLST         232          1.0000000000
       696       232  TIP3  H2            1.8468958141      -13.9986133518      -12.6933292280  CLST         232          1.0000000000
       697       233  TIP3  OH2         -12.6100555785        9.8742009992        2.4321477501  CLST         233          1.0000000000
       698       233  TIP3  H1          -13.0881731924        9.4022135434        3.1497172188  CLST         233          1.0000000000
       699       233  TIP3  H2          -13.2829663734        9.8380421559        1.7149314562  CLST         233          1.0000000000
       700       234  TIP3  OH2          -2.0656010424        4.8277154296       -8.2346615241  CLST         234          1.0000000000
       701       234  TIP3  H1           -2.1307093980        5.7920074935       -8.1119312826  CLST         234          1.0000000000
       702       234  TIP3  H2           -1.8352468666        4.7863793663       -9.1864413516  CLST         234          1.0000000000
       703       235  TIP3  OH2         -10.8245719496        5.4048660479       -6.1410046007  CLST         235          1.0000000000
       704       235  TIP3  H1          -11.2486920572        4.8977072051       -6.8631392140  CLST         235          1.0000000000
       705       235  TIP3  H2           -9.8861095987        5.1682682990       -6.3039053712  CLST         235          1.0000000000
       706       236  TIP3  OH2         -12.0555206431      -10.0416478576       12.9442366575  CLST         236          1.0000000000
       707       236  TIP3  H1          -11.3675587691      -10.6809534298       12.6613032606  CLST         236          1.0000000000
       708       236  TIP3  H2          -12.2017276624       -9.5290752118       12.1220162036  CLST         236          1.0000000000
       709       237  TIP3  OH2          -6.2575666867       -6.3548031846       10.0722763674  CLST         237          1.0000000000
       710       237  TIP3  H1           -5.6057431019       -6.5934633597        9.3733125534  CLST         237          1.0000000000
       711       237  TIP3  H2           -5.7125905252       -6.5020607766       10.8683890899  CLST         237          1.0000000000
       712       238  TIP3  OH2          -0.9244405987        3.4851502644       -2.8699862209  CLST         238          1.0000000000
       713       238  TIP3  H1           -1.4705183788        3.9796584545       -3.5198878858  CLST         238          1.0000000000
       714       238  TIP3  H2           -1.6123931569        2.9333114958       -2.4456004585  CLST         238          1.0000000000
       715       239  TIP3  OH2           8.3883154652        7.1772241510        0.1854182870  CLST         239          1.0000000000
       716       239  TIP3  H1            8.7077280166        6.3065335725       -0.1325272376  CLST         239          1.0000000000
       717       239  TIP3  H2            9.1705565459        7.4552884873        0.7106922501  CLST         239          1.0000000000
       718       240  TIP3  OH2         -10.2522771833        8.4444233731        1.9694308968  CLST         240          1.0000000000
       719       240  TIP3  H1          -11.1146876713        8.8916753200        1.8849878565  CLST         240          1.0000000000
       720       240  TIP3  H2          -10.3464626129        8.0368768883        2.8559149343  CLST         240          1.0000000000
       721       241  TIP3  OH2          10.0000534122       -4.9403246112       -1.6384144411  CLST         241          1.0000000000
       722       241  TIP3  H1            9.3450566846       -5.3588076237       -2.2381612760  CLST         241          1.0000000000
       723       241  TIP3  H2           10.7993990886       -4.9164564815       -2.2042292614  CLST         241          1.0000000000
       724       242  TIP3  OH2           8.6454222178       -1.6207096723       -4.2263488546  CLST         242          1.0000000000
       725       242  TIP3  H1            9.6187307355       -1.5465521859       -4.3182669245  CLST         242          1.0000000000
       726       242  TIP3  H2            8.6021685310       -1.9800855941       -3.3145689672  CLST         242          1.0000000000
       727       243  TIP3  OH2           4.6451577651        9.0194901572      -11.8186627925  CLST         243          1.0000000000
       728       243  TIP3  H1            4.3463774083        9.8313258141      -11.3510953204  CLST         243          1.0000000000
       729       243  TIP3  H2            4.5852200923        8.3618507288      -11.0968112132  CLST         243          1.0000000000
       730       244  TIP3  OH2          -9.2051943410       -6.7061975143      -14.5537423298  CLST         244          1.0000000000
       731       244  TIP3  H1           -9.3757350996       -6.2720151195      -13.6978096891  CLST         244          1.0000000000
       732       244  TIP3  H2          -10.1011344804       -6.7899446832      -14.9424763997  CLST         244          1.0000000000
       733       245  TIP3  OH2         -13.6053533105        6.7074253302        2.5697838894  CLST         245          1.0000000000
       734       245  TIP3  H1          -13.6781720630        7.3078677008        3.3365978477  CLST         245          1.0000000000
       735       245  TIP3  H2          -12.6714435664        6.4189948696        2.6261809169  CLST         245          1.0000000000
       736       246  TIP3  OH2          -8.8300808426        6.4328408418       -1.3069215610  CLST         246          1.0000000000
       737       246  TIP3  H1           -9.7907883562        6.2621891186       -1.1653842824  CLST         246          1.0000000000
       738       246  TIP3  H2           -8.8251641528        7.4049899634       -1.4375928063  CLST         246          1.0000000000
       739       247  TIP3  OH2          -4.2456000238        7.3358914572        7.8382911789  CLST         247          1.0000000000
       740       247  TIP3  H1           -3.4995337531        7.9193815860        8.0817553431  CLST         247          1.0000000000
       741       247  TIP3  H2           -4.3351893363        6.7916607463        8.6442488777  CLST         247          1.0000000000
       742       248  TIP3  OH2          10.3250375537       -8.4753020716        6.6788434399  CLST         248          1.0000000000
       743       248  TIP3  H1            9.3820901315       -8.4561110488        6.4142240231  CLST         248          1.0000000000
       744       248  TIP3  H2           10.7397898857       -9.0070790022        5.9683630348  CLST         248          1.0000000000
       745       249  TIP3  OH2           9.5008715677        5.1138601565       -1.2259147607  CLST         249          1.0000000000
       746       249  TIP3  H1           10.3178593514        4.6013046037       -1.0525802623  CLST         249          1.0000000000
       747       249  TIP3  H2            9.8770311204        5.8451900300       -1.7630717552  CLST         249          1.0000000000
       748       250  TIP3  OH2           5.3636947753       -4.4344430906        3.9752083483  CLST         250          1.0000000000
       749       250  TIP3  H1            5.3629231782       -5.1299328100        3.2808698632  CLST         250          1.0000000000
       750       250  TIP3  H2            4.4180675384       -4.1789827025        4.0296057068  CLST         250          1.0000000000
       751       251  TIP3  OH2         -14.3869232753      -10.7251454076        1.7791159646  CLST         251          1.0000000000
       752       251  TIP3  H1          -14.1258361336      -11.3970411033        1.1130170912  CLST         251          1.0000000000
       753       251  TIP3  H2          -14.4562801029      -11.2842248793        2.5849343971  CLST         251          1.0000000000
       754       252  TIP3  OH2          -5.8741714072      -14.5046642257      -12.3147397835  CLST         252          1.0000000000
       755       252  TIP3  H1           -6.5351289159      -13.7871163487      -12.4262251452  CLST         252          1.0000000000
       756       252  TIP3  H2           -5.9548282891      -14.9500000000      -13.1660195925  CLST         252          1.0000000000
       757       253  TIP3  OH2           0.4645459915        7.4468810243        8.1256294735  CLST         253          1.0000000000
       758       253  TIP3  H1            0.7591362071        7.4199459329        7.1938713777  CLST         253          1.0000000000
       759       253  TIP3  H2            0.8738105321        8.2726824906        8.4573308131  CLST         253          1.0000000000
       760       254  TIP3  OH2         -11.3481856193        1.2205970305      -14.0288844713  CLST         254          1.0000000000
       761       254  TIP3  H1          -12.0192224457        0.5290201223      -13.8356755697  CLST         254          1.0000000000
       762       254  TIP3  H2          -11.5446106785        1.4282222794      -14.9500000000  CLST         254          1.0000000000
       763       255  TIP3  OH2           4.1253203075       -0.1565118823       -1.1328339203  CLST         255          1.0000000000
       764       255  TIP3  H1            4.2272476857       -1.0725201630       -0.8277419532  CLST         255          1.0000000000
       765       255  TIP3  H2            3.1585559764       -0.1099071848       -1.3018182319  CLST         255          1.0000000000
       766       256  TIP3  OH2          13.7690547711       -2.8666791605      -12.3480979217  CLST         256          1.0000000000
       767       256  TIP3  H1           13.8465856913       -2.2963057142      -13.1403879090  CLST         256          1.0000000000
       768       256  TIP3  H2           13.0742120493       -3.5063508780      -12.6251852325  CLST         256          1.0000000000
       769       257  TIP3  OH2          -6.7500997767      -13.5634657756        9.8850264664  CLST         257          1.0000000000
       770       257  TIP3  H1           -6.9361833727      -14.4138556077        9.4413907069  CLST         257          1.0000000000
       771       257  TIP3  H2           -5.8709017156      -13.7303964211       10.2727286242  CLST         257          1.0000000000
       772       258  TIP3  OH2          -9.4983071024      -11.3709134465       -6.2126624793  CLST         258          1.0000000000
       773       258  TIP3  H1           -9.1606255876      -11.6250568989       -5.3291978090  CLST         258          1.0000000000
       774       258  TIP3  H2           -9.5577919603      -10.4040295921       -6.0753649265  CLST         258          1.0000000000
       775       259  TIP3  OH2           3.6723540503        2.4704495007       14.1210403480  CLST         259          1.0000000000
       776       259  TIP3  H1            3.9106628848        1.5205865194       14.1784679823  CLST         259          1.0000000000
       777       259  TIP3  H2            4.0701790481        2.8174472601       14.9500000000  CLST         259          1.0000000000
       778       260  TIP3  OH2         -10.7292994544      -10.0494227743       -9.4230548662  CLST         260          1.0000000000
       779       260  TIP3  H1          -11.4460916053      -10.1764569953      -10.0808803198  CLST         260          1.0000000000
       780       260  TIP3  H2          -11.2384649637       -9.8420849652       -8.6118913325  CLST         260          1.0000000000
       781       261  TIP3  OH2           6.9638265566        0.8850876205       -0.2624571447  CLST         261          1.0000000000
       782       261  TIP3  H1            7.1018614690        1.7689511969       -0.6538650120  CLST         261          1.0000000000
       783       261  TIP3  H2            6.5165984565        1.0862803802        0.5794896759  CLST         261          1.0000000000
       784       262  TIP3  OH2          -1.2699773059       13.9429123820        2.7057894583  CLST         262          1.0000000000
       785       262  TIP3  H1           -1.9477433994       13.6859791289        3.3726135400  CLST         262          1.0000000000
       786       262  TIP3  H2           -0.6324608800       13.2068950275        2.7859362368  CLST         262          1.0000000000
       787       263  TIP3  OH2           6.2280119366        3.6633551189        1.2422688559  CLST         263          1.0000000000
       788       263  TIP3  H1            6.6123540446        3.6910059041        0.3369218443  CLST         263          1.0000000000
       789       263  TIP3  H2            5.4393717585        3.1099862442        1.0554291117  CLST         263          1.0000000000
       790       264  TIP3  OH2          -3.0155089705       11.0469317009        9.5822339540  CLST         264          1.0000000000
       791       264  TIP3  H1           -2.2240484126       11.4828547813        9.9562124919  CLST         264          1.0000000000
       792       264  TIP3  H2           -2.6058614839       10.2340619951        9.2262067360  CLST         264          1.0000000000
       793       265  TIP3  OH2         -12.8103748298       11.9298023532       -0.3471729380  CLST         265          1.0000000000
       794       265  TIP3  H1          -12.8049106556       11.8985473335       -1.3265818652  CLST         265          1.0000000000
       795       265  TIP3  H2          -13.4662662906       11.2314630349       -0.1472437056  CLST         265          1.0000000000
       796       266  TIP3  OH2          -3.9068693767        1.3037117093        4.0986009784  CLST         266          1.0000000000
       797       266  TIP3  H1           -4.3209083122        0.5356825278        3.6435688499  CLST         266          1.0000000000
       798       266  TIP3  H2           -3.9157362733        1.9380669949        3.3563540878  CLST         266          1.0000000000
       799       267  TIP3  OH2          -7.1023167621       12.6907093282       -5.8434318713  CLST         267          1.0000000000
       800       267  TIP3  H1           -7.4513882378       11.9539388313       -6.3899879266  CLST         267          1.0000000000
       801       267  TIP3  H2           -7.4288221451       12.4440382041       -4.9502615917  CLST         267          1.0000000000
       802       268  TIP3  OH2           4.6075810951        3.6184235202      -13.5228345409  CLST         268          1.0000000000
       803       268  TIP3  H1            5.4239283495        3.7435277451      -12.9907909225  CLST         268          1.0000000000
       804       268  TIP3  H2            4.4406613265        4.5409304807      -13.8093675624  CLST         268          1.0000000000
       805       269  TIP3  OH2           9.1302148719       -0.8765502462       11.3142743389  CLST         269          1.0000000000
       806       269  TIP3  H1            9.8244502967       -0.2232232293       11.5526823923  CLST         269          1.0000000000
       807       269  TIP3  H2            8.8276072212       -1.1263551875       12.2142797538  CLST         269          1.0000000000
       808       270  TIP3  OH2          -8.3568755247       -5.5140799615        6.5760675795  CLST         270          1.0000000000
       809       270  TIP3  H1           -8.4281232204       -5.7745238152        5.6289446231  CLST         270          1.0000000000
       810       270  TIP3  H2           -7.5638628290       -4.9428338748        6.5637038991  CLST         270          1.0000000000
       811       271  TIP3  OH2         -11.8633676066       12.3393433639       11.6609427734  CLST         271          1.0000000000
       812       271  TIP3  H1          -11.2513769127       11.6357167147       11.9518122065  CLST         271          1.0000000000
       813       271  TIP3  H2          -11.2308273196       12.8973053176       11.1673515162  CLST         271          1.0000000000
       814       272  TIP3  OH2           6.6018379325      -14.9500000000        2.9237212903  CLST         272          1.0000000000
       815       272  TIP3  H1            7.4176766577      -14.4439447330        2.7943465884  CLST         272          1.0000000000
       816       272  TIP3  H2            6.4641236501      -14.8727897288        3.8969870392  CLST         272          1.0000000000
       817       273  TIP3  OH2          -8.0402834118       10.8328260805       -7.6582195700  CLST         273          1.0000000000
       818       273  TIP3  H1           -8.9252995502       11.1587084288       -7.9198194049  CLST         273          1.0000000000
       819       273  TIP3  H2           -8.0185698617        9.9517256161       -8.0817558084  CLST         273          1.0000000000
       820       274  TIP3  OH2          -6.5217365814        0.5790923418       14.1820798696  CLST         274          1.0000000000
       821       274  TIP3  H1           -7.3366979291        0.7127591768       14.7190161232  CLST         274          1.0000000000
       822       274  TIP3  H2           -6.8936545949        0.7272797781       13.2828890860  CLST         274          1.0000000000
       823       275  TIP3  OH2           3.6137029347       13.9798792875       -0.3480417322  CLST         275          1.0000000000
       824       275  TIP3  H1            2.6482565872       13.8899528649       -0.5028802347  CLST         275          1.0000000000
       825       275  TIP3  H2            3.6798680603       14.9500000000       -0.3376374331  CLST         275          1.0000000000
       826       276  TIP3  OH2           3.0435947671       -9.2213551099        7.3431713182  CLST         276          1.0000000000
       827       276  TIP3  H1            2.7462248050       -9.3880684134        8.2592990242  CLST         276          1.0000000000
       828       276  TIP3  H2            3.9547302761       -8.9217956543        7.5516483422  CLST         276          1.0000000000
       829       277  TIP3  OH2          -7.7745596747        7.0654338258        3.4114584088  CLST         277          1.0000000000
       830       277  TIP3  H1           -8.6688000789        7.2121903920        3.7660161516  CLST         277          1.0000000000
       831       277  TIP3  H2           -7.9668202568        6.4513096570        2.6720697525  CLST         277          1.0000000000
       832       278  TIP3  OH2           5.0448273649      -10.6594511357       10.1562753119  CLST         278          1.0000000000
       833       278  TIP3  H1            4.9880201798       -9.7660689446        9.7596897111  CLST         278          1.0000000000
       834       278  TIP3  H2            4.6149506787      -10.5332013407       11.0278081585  CLST         278          1.0000000000
       835       279  TIP3  OH2          12.1854274899       -6.4965322223        7.0217497910  CLST         279          1.0000000000
       836       279  TIP3  H1           11.5888335312       -7.2668671792        6.9252849794  CLST         279          1.0000000000
       837       279  TIP3  H2           11.6530352659       -5.8274956371        6.5473749934  CLST         279          1.0000000000
       838       280  TIP3  OH2           6.7443233935       -8.9231610634       12.8807316767  CLST         280          1.0000000000
       839       280  TIP3  H1            7.1123918453       -9.7743036833       12.5627056426  CLST         280          1.0000000000
       840       280  TIP3  H2            7.4382393417       -8.3006706937       12.5804771154  CLST         280          1.0000000000
       841       281  TIP3  OH2          -1.7595142027        4.6839232931       10.6260291142  CLST         281          1.0000000000
       842       281  TIP3  H1           -2.5884882393        4.1667647624       10.5326975048  CLST         281          1.0000000000
       843       281  TIP3  H2           -1.5476081812        4.5136604726       11.5721036253  CLST         281          1.0000000000
       844       282  TIP3  OH2          10.2230081088        9.7725145619      -11.3308447673  CLST         282          1.0000000000
       845       282  TIP3  H1            9.8271514297        9.0951065900      -11.9203514577  CLST         282          1.0000000000
       846       282  TIP3  H2           11.1482897941        9.4743145386      -11.2927303111  CLST         282          1.0000000000
       847       283  TIP3  OH2          -2.3471803194       -4.7439992751       -0.6260862722  CLST         283          1.0000000000
       848       283  TIP3  H1           -3.1271350210       -4.8612525444       -1.2106589116  CLST         283          1.0000000000
       849       283  TIP3  H2           -2.3974418797       -5.5738223538       -0.0950469671  CLST         283          1.0000000000
       850       284  TIP3  OH2           3.6305242699       10.1794823507        1.6249781563  CLST         284          1.0000000000
       851       284  TIP3  H1            4.3136830582        9.5009573649        1.5060923904  CLST         284          1.0000000000
       852       284  TIP3  H2            3.2208513423        9.9119150797        2.4688698636  CLST         284          1.0000000000
       853       285  TIP3  OH2         -11.9382413442       -5.6895535489        7.8485625558  CLST         285          1.0000000000
       854       285  TIP3  H1          -11.3311991966       -6.4549976434        7.9322874913  CLST         285          1.0000000000
       855       285  TIP3  H2          -12.3195267781       -5.8777710610        6.9630218836  CLST         285          1.0000000000
       856       286  TIP3  OH2          -1.9927606223      -10.1659315923       -9.9612265060  CLST         286          1.0000000000
       857       286  TIP3  H1           -1.4316571778       -9.7375985962      -10.6300731909  CLST         286          1.0000000000
       858       286  TIP3  H2           -1.7272681444      -11.1004719733      -10.0434668200  CLST         286          1.0000000000
       859       287  TIP3  OH2           3.0530939747       -0.6543893632       -7.4391512763  CLST         287          1.0000000000
       860       287  TIP3  H1            2.7754111646        0.2894161489       -7.4350397637  CLST         287          1.0000000000
       861       287  TIP3  H2            3.9489214678       -0.5622311198       -7.8136103589  CLST         287          1.0000000000
       862       288  TIP3  OH2          13.0499716068      -13.8625116713       -8.4694551994  CLST         288          1.0000000000
       863       288  TIP3  H1           12.8105108946      -13.3557467110       -7.6599867622  CLST         288          1.0000000000
       864       288  TIP3  H2           13.6263711691      -14.5434897077       -8.1129304623  CLST         288          1.0000000000
       865       289  TIP3  OH2          14.1995532956        4.0032618482      -10.3048001271  CLST         289          1.0000000000
       866       289  TIP3  H1           13.8099119671        4.0258860815       -9.3979690404  CLST         289          1.0000000000
       867       289  TIP3  H2           14.9500000000        3.4074028626      -10.1668336745  CLST         289          1.0000000000
       868       290  TIP3  OH2          10.8944382114        0.8917961190       12.4476890254  CLST         290          1.0000000000
       869       290  TIP3  H1           10.5053600640        1.2081255305       13.2843784483  CLST         290          1.0000000000
       870       290  TIP3  H2           11.4422474671        1.6619954543       12.2070246973  CLST         290          1.0000000000
       871       291  TIP3  OH2         -10.9685004531       -8.9136482568       -2.8939030010  CLST         291          1.0000000000
       872       291  TIP3  H1          -10.5560112890       -9.6152449469       -2.3463218650  CLST         291          1.0000000000
       873       291  TIP3  H2          -11.1479241663       -8.2568533007       -2.1866905175  CLST         291          1.0000000000
       874       292  TIP3  OH2           9.1422468092       -2.4872326413      -11.3670781456  CLST         292          1.0000000000
       875       292  TIP3  H1            8.4844175779       -3.1913947703      -11.5014365443  CLST         292          1.0000000000
       876       292  TIP3  H2            9.2731564194       -2.5293132453      -10.3969630942  CLST         292          1.0000000000
       877       293  TIP3  OH2           2.0639532004        2.6858485487      -12.9133753382  CLST         293          1.0000000000
       878       293  TIP3  H1            1.8131468806        3.6194639268      -13.1041047435  CLST         293          1.0000000000
       879       293  TIP3  H2            3.0188620057        2.7530214615      -13.1141750534  CLST         293          1.0000000000
       880       294  TIP3  OH2           1.8371536525        7.1297603596        1.1423232928  CLST         294          1.0000000000
       881       294  TIP3  H1            1.4246901338        6.2666619932        1.3688607114  CLST         294          1.0000000000
       882       294  TIP3  H2            2.2910471975        7.3528135167        1.9798928835  CLST         294          1.0000000000
       883       295  TIP3  OH2           4.3023794197       12.6659676909       -4.5020003320  CLST         295          1.0000000000
       884       295  TIP3  H1            3.5547199286       13.0892788353       -4.0236887977  CLST         295          1.0000000000
       885       295  TIP3  H2            4.3745727083       13.2518428804       -5.2823407640  CLST         295          1.0000000000
       886       296  TIP3  OH2           2.9824611161        5.0884034146      -10.7484543926  CLST         296          1.0000000000
       887       296  TIP3  H1            2.5555076389        5.1013357461      -11.6294371588  CLST         296          1.0000000000
       888       296  TIP3  H2            2.2230774581        4.8191687846      -10.1808313145  CLST         296          1.0000000000
       889       297  TIP3  OH2          13.1993331480        0.3737946263        9.7186484368  CLST         297          1.0000000000
       890       297  TIP3  H1           13.6565824076        0.9263181120       10.3799631551  CLST         297          1.0000000000
       891       297  TIP3  H2           13.9637540784        0.0174294979        9.2170430518  CLST         297          1.0000000000
       892       298  TIP3  OH2          11.8914508770       -4.8469663222      -12.5487163625  CLST         298          1.0000000000
       893       298  TIP3  H1           11.2229689084       -5.2473669022      -13.1338328307  CLST         298          1.0000000000
       894       298  TIP3  H2           12.4482757014       -5.6317205083      -12.3601234169  CLST         298          1.0000000000
       895       299  TIP3  OH2           4.1179777399       -5.6597165532       -7.1466955791  CLST         299          1.0000000000
       896       299  TIP3  H1            3.4798487693       -4.9564726650       -6.9017415103  CLST         299          1.0000000000
       897       299  TIP3  H2            4.8546263973       -5.0790890093       -7.4295836079  CLST         299          1.0000000000
       898       300  TIP3  OH2          10.1968453963       -6.5275029944      -14.0948722794  CLST         300          1.0000000000
       899       300  TIP3  H1           10.0661320826       -5.8928274825      -14.8360566103  CLST         300          1.0000000000
       900       300  TIP3  H2            9.3138569078       -6.4573000343      -13.6519652662  CLST         300          1.0000000000
       901       301  TIP3  OH2          10.4531450043       -6.6453392051        0.4545723601  CLST         301          1.0000000000
       902       301  TIP3  H1           10.3862642735       -5.8718829833       -0.1389829174  CLST         301          1.0000000000
       903       301  TIP3  H2           10.1788806711       -7.3465805481       -0.1665564620  CLST         301          1.0000000000
       904       302  TIP3  OH2          11.9861526246       -7.9087981546       11.3985660827  CLST         302          1.0000000000
       905       302  TIP3  H1           12.3371301612       -7.1738594708       10.8516428978  CLST         302          1.0000000000
       906       302  TIP3  H2           11.4325059272       -8.3619130575       10.7267868412  CLST         302          1.0000000000
       907       303  TIP3  OH2          -8.8082300958       12.3089502674        7.1778284043  CLST         303          1.0000000000
       908       303  TIP3  H1           -8.5963843646       12.6580518741        6.2879142021  CLST         303          1.0000000000
       909       303  TIP3  H2           -8.3204546942       12.9332354202        7.7448742056  CLST         303          1.0000000000
       910       304  TIP3  OH2          -1.9954778113        7.7507479132       -0.9662539899  CLST         304          1.0000000000
       911       304  TIP3  H1           -2.6239554993        7.0060514141       -0.8643988839  CLST         304          1.0000000000
       912       304  TIP3  H2           -2.6019829229        8.4462937889       -1.2965858169  CLST         304          1.0000000000
       913       305  TIP3  OH2          -2.9145088955       -6.2510092207       -9.5527206654  CLST         305          1.0000000000
       914       305  TIP3  H1           -2.4122197833       -5.5629430266      -10.0321707528  CLST         305          1.0000000000
       915       305  TIP3  H2           -2.5246258447       -6.2075375489       -8.6542141597  CLST         305          1.0000000000
       916       306  TIP3  OH2          -8.3621191805       14.3603666785       -6.7848056624  CLST         306          1.0000000000
       917       306  TIP3  H1           -7.8488270876       13.5536433036       -6.5716118320  CLST         306          1.0000000000
       918       306  TIP3  H2           -8.0300295796       14.9500000000       -6.0647431377  CLST         306          1.0000000000
       919       307  TIP3  OH2           0.2920153499       10.4634893337      -13.8853890830  CLST         307          1.0000000000
       920       307  TIP3  H1            0.7329424930       11.1927377677      -13.4031410852  CLST         307          1.0000000000
       921       307  TIP3  H2            1.0594085332        9.8653369386      -13.9684984472  CLST         307          1.0000000000
       922       308  TIP3  OH2          12.5265083688       -3.2767104501       13.5923191001  CLST         308          1.0000000000
       923       308  TIP3  H1           12.8495773187       -3.1067358514       12.6869268332  CLST         308          1.0000000000
       924       308  TIP3  H2           13.1895139073       -3.9228108447       13.9347092858  CLST         308          1.0000000000
       925       309  TIP3  OH2          12.1718127112       11.2900892486      -14.1177160106  CLST         309          1.0000000000
       926       309  TIP3  H1           12.2203894849       12.0041507034      -13.4385005987  CLST         309          1.0000000000
       927       309  TIP3  H2           12.0779801119       11.7954871720      -14.9500000000  CLST         309          1.0000000000
       928       310  TIP3  OH2           4.4422994208       14.0096580482       -6.8744666141  CLST         310          1.0000000000
       929       310  TIP3  H1            3.5595348919       13.9029818017       -7.2811650063  CLST         310          1.0000000000
       930       310  TIP3  H2            4.9628349237       13.5131549932       -7.5402126412  CLST         310          1.0000000000
       931       311  TIP3  OH2          -5.8717596055        5.4605828140       -4.9584176492  CLST         311          1.0000000000
       932       311  TIP3  H1           -6.8284952253        5.4085530918       -4.7385272820  CLST         311          1.0000000000
       933       311  TIP3  H2           -5.8914744484        5.4596481610       -5.9371017863  CLST         311          1.0000000000
       934       312  TIP3  OH2           5.3173793763       -8.3627339200        8.5947365909  CLST         312          1.0000000000
       935       312  TIP3  H1            5.1185225883       -7.4203610908        8.7845295264  CLST         312          1.0000000000
       936       312  TIP3  H2            6.2819138340       -8.3977081845        8.7686835940  CLST         312          1.0000000000
       937       313  TIP3  OH2          -2.7424928620        7.2832348780       11.1354374239  CLST         313          1.0000000000
       938       313  TIP3  H1           -3.6029966587        6.8928077818       10.8614634533  CLST         313          1.0000000000
       939       313  TIP3  H2           -2.2257610466        6.4649629493       11.2059263798  CLST         313          1.0000000000
       940       314  TIP3  OH2           9.0552475936       -2.3995872670       -1.6363109766  CLST         314          1.0000000000
       941       314  TIP3  H1            9.2081398036       -3.3587797745       -1.5010930182  CLST         314          1.0000000000
       942       314  TIP3  H2            8.3529015722       -2.2068731302       -0.9802602973  CLST         314          1.0000000000
       943       315  TIP3  OH2           4.6386220738        9.6107253967       -3.3217146135  CLST         315          1.0000000000
       944       315  TIP3  H1            3.9511009988        8.9553784898       -3.1039835419  CLST         315          1.0000000000
       945       315  TIP3  H2            4.4088484400       10.3510893162       -2.7252177845  CLST         315          1.0000000000
       946       316  TIP3  OH2          13.3810283649       -6.9984809838       -6.0363519148  CLST         316          1.0000000000
       947       316  TIP3  H1           12.5597143041       -6.8861460699       -5.5128865137  CLST         316          1.0000000000
       948       316  TIP3  H2           13.3595129411       -6.1910961125       -6.5896016900  CLST         316          1.0000000000
       949       317  TIP3  OH2          -2.3377669008      -10.1125944365       -2.5098651251  CLST         317          1.0000000000
       950       317  TIP3  H1           -2.6754937872      -10.7183316390       -3.2016722223  CLST         317          1.0000000000
       951       317  TIP3  H2           -1.7261985363       -9.5702903306       -3.0446459690  CLST         317          1.0000000000
       952       318  TIP3  OH2          -0.9361719550        9.9213645346       -4.8221980492  CLST         318          1.0000000000
       953       318  TIP3  H1           -1.7646212874        9.5434463739       -5.1940835805  CLST         318          1.0000000000
       954       318  TIP3  H2           -0.8351207479       10.7314268259       -5.3679430024  CLST         318          1.0000000000
       955       319  TIP3  OH2           5.6842691376       -8.0148077096       -1.6822548530  CLST         319          1.0000000000
       956       319  TIP3  H1            6.3697944102       -8.2426621645       -2.3384118615  CLST         319          1.0000000000
       957       319  TIP3  H2            5.8214601226       -8.7109229734       -1.0023129563  CLST         319          1.0000000000
       958       320  TIP3  OH2           5.9247035924       12.7194866216      -12.1411846519  CLST         320          1.0000000000
       959       320  TIP3  H1            6.0324472353       12.4468701873      -13.0749128293  CLST         320          1.0000000000
       960       320  TIP3  H2            6.6059621755       12.1694919211      -11.7149331987  CLST         320          1.0000000000
       961       321  TIP3  OH2           1.5415448926      -11.5792115539        9.5151073665  CLST         321          1.0000000000
       962       321  TIP3  H1            2.0628689615      -12.2186529901       10.0566875775  CLST         321          1.0000000000
       963       321  TIP3  H2            1.9175406798      -10.7288091567        9.8208580412  CLST         321          1.0000000000
       964       322  TIP3  OH2           0.3756255797        6.3965436670       10.6013469966  CLST         322          1.0000000000
       965       322  TIP3  H1            0.4317382593        6.7677220442        9.6923223946  CLST         322          1.0000000000
       966       322  TIP3  H2           -0.3056866746        5.7068027364       10.4857945279  CLST         322          1.0000000000
       967       323  TIP3  OH2           7.6097637538        2.5634423453       12.6537610105  CLST         323          1.0000000000
       968       323  TIP3  H1            6.7106362972        2.9056049526       12.4659060199  CLST         323          1.0000000000
       969       323  TIP3  H2            7.9338886364        2.4595153724       11.7307962801  CLST         323          1.0000000000
       970       324  TIP3  OH2           7.1994222849        3.5969722899       -1.2604997781  CLST         324          1.0000000000
       971       324  TIP3  H1            6.6306644251        4.1786521065       -1.8057627054  CLST         324          1.0000000000
       972       324  TIP3  H2            8.0644388476        4.0533095680       -1.3475319649  CLST         324          1.0000000000
       973       325  TIP3  OH2         -12.1391596174       -8.1290086688       10.8068037837  CLST         325          1.0000000000
       974       325  TIP3  H1          -12.5937229075       -7.2662355909       10.7274970176  CLST         325          1.0000000000
       975       325  TIP3  H2          -11.2201446023       -7.8406069708       10.9573869963  CLST         325          1.0000000000
       976       326  TIP3  OH2         -12.4932901800        9.6208134615       -5.0063242712  CLST         326          1.0000000000
       977       326  TIP3  H1          -12.4573231903       10.4993869601       -5.4356025951  CLST         326          1.0000000000
       978       326  TIP3  H2          -11.8471006300        9.1240018001       -5.5549881317  CLST         326          1.0000000000
       979       327  TIP3  OH2          12.5076654311       -5.8363211315        9.6497279551  CLST         327          1.0000000000
       980       327  TIP3  H1           12.4607490086       -6.2145820484        8.7438835499  CLST         327          1.0000000000
       981       327  TIP3  H2           12.8021649840       -4.9324282733        9.4142588771  CLST         327          1.0000000000
       982       328  TIP3  OH2         -12.9282017805       -8.2337483577      -12.4240655590  CLST         328          1.0000000000
       983       328  TIP3  H1          -12.0232943106       -8.0315621461      -12.1144707636  CLST         328          1.0000000000
       984       328  TIP3  H2          -12.9682693333       -9.1815355459      -12.2030762561  CLST         328          1.0000000000
       985       329  TIP3  OH2           6.0133495548       -4.2447740369       -1.6901983016  CLST         329          1.0000000000
       986       329  TIP3  H1            5.5680910329       -3.6578993188       -1.0559536364  CLST         329          1.0000000000
       987       329  TIP3  H2            5.3217969450       -4.3393168870       -2.3765758612  CLST         329          1.0000000000
       988       330  TIP3  OH2          13.1196377142        6.2014724697      -14.6617966179  CLST         330          1.0000000000
       989       330  TIP3  H1           13.5092463017        6.1092568286      -13.7714772024  CLST         330          1.0000000000
       990       330  TIP3  H2           12.8128678858        7.1326551560      -14.6022592055  CLST         330          1.0000000000
       991       331  TIP3  OH2          -5.1258765139       -0.1134327996        6.1331272069  CLST         331          1.0000000000
       992       331  TIP3  H1           -4.6195917748        0.4931261121        5.5558166699  CLST         331          1.0000000000
       993       331  TIP3  H2           -6.0115968871        0.3061813454        6.0758546441  CLST         331          1.0000000000
       994       332  TIP3  OH2          -8.5820331004        9.1253848681       -1.6504741800  CLST         332          1.0000000000
       995       332  TIP3  H1           -9.1656549187        9.9094913272       -1.7732481144  CLST         332          1.0000000000
       996       332  TIP3  H2           -8.3129639102        9.2723633604       -0.7178155419  CLST         332          1.0000000000
       997       333  TIP3  OH2          -6.9810028616       -8.8324454122       -6.4937639854  CLST         333          1.0000000000
       998       333  TIP3  H1           -7.4428511279       -9.1980073924       -7.2788414384  CLST         333          1.0000000000
       999       333  TIP3  H2           -7.3424369359       -7.9225840115       -6.5301137596  CLST         333          1.0000000000
      1000       334  TIP3  OH2         -10.5403204210        8.1238370652       -9.0765689097  CLST         334          1.0000000000
      1001       334  TIP3  H1           -9.9972014595        8.8633743620       -9.4215626865  CLST         334          1.0000000000
      1002       334  TIP3  H2          -10.5251132622        8.2864908250       -8.1063092375  CLST         334          1.0000000000
      1003       335  TIP3  OH2           1.3972295496        0.0194150925       -1.3019229741  CLST         335          1.0000000000
      1004       335  TIP3  H1            1.1176813983       -0.6694082871       -0.6575019607  CLST         335          1.0000000000
      1005       335  TIP3  H2            0.6337284396        0.0322771148       -1.9178952167  CLST         335          1.0000000000
      1006       336  TIP3  OH2          11.3023211376        5.0461778324        1.6806729185  CLST         336          1.0000000000
      1007       336  TIP3  H1           10.4013839305        4.6542036460        1.6842726059  CLST         336          1.0000000000
      1008       336  TIP3  H2           11.0965507123        6.0051623723        1.6454109579  CLST         336          1.0000000000
      1009       337  TIP3  OH2           2.7019114208      -14.2679259738        4.9239990107  CLST         337          1.0000000000
      1010       337  TIP3  H1            2.3919562450      -13.9637637004        5.8136170039  CLST         337          1.0000000000
      1011       337  TIP3  H2            1.8528916817      -14.2917485989        4.4262714975  CLST         337          1.0000000000
      1012       338  TIP3  OH2          -3.7235726410        2.7894267370      -10.4985121012  CLST         338          1.0000000000
      1013       338  TIP3  H1           -3.2986488514        1.9781987711      -10.8478820667  CLST         338          1.0000000000
      1014       338  TIP3  H2           -4.0756803139        2.4346533149       -9.6549884636  CLST         338          1.0000000000
      1015       339  TIP3  OH2           4.8517402848        2.4424185081       -7.1610525625  CLST         339          1.0000000000
      1016       339  TIP3  H1            3.8739925989        2.3660612451       -7.1621604116  CLST         339          1.0000000000
      1017       339  TIP3  H2            4.9756225908        3.0829036262       -7.8987882842  CLST         339          1.0000000000
      1018       340  TIP3  OH2         -10.5451650853       11.8572949611       -8.4999041089  CLST         340          1.0000000000
      1019       340  TIP3  H1          -11.4626152856       11.6044699108       -8.7342851041  CLST         340          1.0000000000
      1020       340  TIP3  H2          -10.6998218696       12.7085014319       -8.0402616933  CLST         340          1.0000000000
      1021       341  TIP3  OH2          -1.7047719175       13.4695537731       -1.1558969752  CLST         341          1.0000000000
      1022       341  TIP3  H1           -1.6070086791       12.5826523849       -1.5714340307  CLST         341          1.0000000000
      1023       341  TIP3  H2           -1.9266306995       14.0183631002       -1.9250189400  CLST         341          1.0000000000
      1024       342  TIP3  OH2         -11.9607415594        3.5520171627        9.7419910883  CLST         342          1.0000000000
      1025       342  TIP3  H1          -12.3075416693        2.7037803021       10.0906326587  CLST         342          1.0000000000
      1026       342  TIP3  H2          -12.1300875300        4.1273064422       10.5249312616  CLST         342          1.0000000000
      1027       343  TIP3  OH2          -0.7136375873       -1.5759827870      -14.0513828289  CLST         343          1.0000000000
      1028       343  TIP3  H1           -1.2108119768       -0.7656680860      -13.8005470111  CLST         343          1.0000000000
      1029       343  TIP3  H2           -0.3961488459       -1.3261683119      -14.9500000000  CLST         343          1.0000000000
      1030       344  TIP3  OH2           8.9506314772        4.4657464624        4.6990328393  CLST         344          1.0000000000
      1031       344  TIP3  H1            8.5441453272        5.3181648076        4.9615885644  CLST         344          1.0000000000
      1032       344  TIP3  H2            8.3297239059        3.8284542426        5.1048225278  CLST         344          1.0000000000
      1033       345  TIP3  OH2           0.0250225848        9.0057121421        0.3740763663  CLST         345          1.0000000000
      1034       345  TIP3  H1            0.6471446748        8.2824243154        0.6025621293  CLST         345          1.0000000000
      1035       345  TIP3  H2           -0.6984459059        8.5160083616       -0.0670389140  CLST         345          1.0000000000
      1036       346  TIP3  OH2          -5.0185692852      -13.7349103667        6.6550473328  CLST         346          1.0000000000
      1037       346  TIP3  H1           -5.8308813562      -13.3486507572        6.2779348041  CLST         346          1.0000000000
      1038       346  TIP3  H2           -4.7502530112      -13.0527132811        7.3013829275  CLST         346          1.0000000000
      1039       347  TIP3  OH2         -13.4596808542      -11.2854798149       -2.5062064630  CLST         347          1.0000000000
      1040       347  TIP3  H1          -13.5614847481      -10.7518224097       -3.3195415676  CLST         347          1.0000000000
      1041       347  TIP3  H2          -13.3108727316      -10.5676774493       -1.8453838603  CLST         347          1.0000000000
      1042       348  TIP3  OH2           4.6030251599        6.3766972622       -7.1028679747  CLST         348          1.0000000000
      1043       348  TIP3  H1            5.4288178213        5.9209474496       -6.8243845357  CLST         348          1.0000000000
      1044       348  TIP3  H2            4.6742683451        7.1980768352       -6.5756335078  CLST         348          1.0000000000
      1045       349  TIP3  OH2           7.9011469108        9.8748699308        2.8694064060  CLST         349          1.0000000000
      1046       349  TIP3  H1            8.3735485806       10.1622680451        2.0613832361  CLST         349          1.0000000000
      1047       349  TIP3  H2            7.1483455799        9.3957856918        2.4688962052  CLST         349          1.0000000000
      1048       350  TIP3  OH2          -8.6586815297        0.8212524857      -14.0992269692  CLST         350          1.0000000000
      1049       350  TIP3  H1           -8.7385678927       -0.1087559426      -13.7963448125  CLST         350          1.0000000000
      1050       350  TIP3  H2           -9.5972161142        1.0241506002      -14.3040885190  CLST         350          1.0000000000
      1051       351  TIP3  OH2          12.6311485802        2.1122189828        5.7450874368  CLST         351          1.0000000000
      1052       351  TIP3  H1           12.8229101649        2.6195525688        6.5635588264  CLST         351          1.0000000000
      1053       351  TIP3  H2           12.2713374551        2.8254760426        5.1711399219  CLST         351          1.0000000000
      1054       352  TIP3  OH2           5.6301620330        0.0164911291       -8.2529989002  CLST         352          1.0000000000
      1055       352  TIP3  H1            6.2468641292       -0.4295117917       -7.6288183531  CLST         352          1.0000000000
      1056       352  TIP3  H2            5.4912416703        0.8729362026       -7.7903264163  CLST         352          1.0000000000
      1057       353  TIP3  OH2          -1.6103561730       10.0754462304      -11.9341642585  CLST         353          1.0000000000
      1058       353  TIP3  H1           -1.0883368275       10.1602680294      -12.7601202804  CLST         353          1.0000000000
      1059       353  TIP3  H2           -1.8908358713        9.1381440128      -11.9705696427  CLST         353          1.0000000000
      1060       354  TIP3  OH2         -11.6948452008      -11.1692260417      -14.1197054754  CLST         354          1.0000000000
      1061       354  TIP3  H1          -12.0306939307      -10.7995725233      -14.9500000000  CLST         354          1.0000000000
      1062       354  TIP3  H2          -10.8157685996      -11.4944900796      -14.3958358300  CLST         354          1.0000000000
      1063       355  TIP3  OH2           1.7105559497      -14.0471928783       -8.9615275526  CLST         355          1.0000000000
      1064       355  TIP3  H1            1.3656907670      -13.3504094408       -8.3557331189  CLST         355          1.0000000000
      1065       355  TIP3  H2            0.8957166478      -14.2973067244       -9.4364554145  CLST         355          1.0000000000
      1066       356  TIP3  OH2         -13.1888194111       -5.0285021799       -2.9039734827  CLST         356          1.0000000000
      1067       356  TIP3  H1          -13.4641358043       -5.9332045197       -3.1339774062  CLST         356          1.0000000000
      1068       356  TIP3  H2          -13.2961311819       -4.6136725444       -3.7805997050  CLST         356          1.0000000000
      1069       357  TIP3  OH2          -6.1032440965       -9.4633697809        5.1211835479  CLST         357          1.0000000000
      1070       357  TIP3  H1           -5.3608288792       -9.7048802113        4.5334030239  CLST         357          1.0000000000
      1071       357  TIP3  H2           -6.1513829006       -8.5130264010        4.8851720742  CLST         357          1.0000000000
      1072       358  TIP3  OH2          -1.6371817950       -7.9647986209        3.5465823805  CLST         358          1.0000000000
      1073       358  TIP3  H1           -0.6606680203       -8.0276758243        3.4904670615  CLST         358          1.0000000000
      1074       358  TIP3  H2           -1.7627415657       -7.5119014331        4.4067061372  CLST         358          1.0000000000
      1075       359  TIP3  OH2          10.4597199189        9.8598932084       -1.4483862742  CLST         359          1.0000000000
      1076       359  TIP3  H1            9.9881371423       10.2214750474       -0.6633742614  CLST         359          1.0000000000
      1077       359  TIP3  H2           10.6830135605       10.6953420016       -1.9288749950  CLST         359          1.0000000000
      1078       360  TIP3  OH2           7.3086184327       12.3758406087       12.7795625878  CLST         360          1.0000000000
      1079       360  TIP3  H1            6.7645134942       12.4915026465       11.9767812342  CLST         360          1.0000000000
      1080       360  TIP3  H2            7.9963992307       13.0558497757       12.6175334619  CLST         360          1.0000000000
      1081       361  TIP3  OH2          -6.3148390955      -10.9198290035       10.4246802226  CLST         361          1.0000000000
      1082       361  TIP3  H1           -6.1873404340      -10.7013378256        9.4784440492  CLST         361          1.0000000000
      1083       361  TIP3  H2           -6.6316966113      -11.8465671328       10.3279628720  CLST         361          1.0000000000
      1084       362  TIP3  OH2           4.3114451211       -3.1366113411       10.1462789113  CLST         362          1.0000000000
      1085       362  TIP3  H1            4.2608384797       -3.9877887901        9.6701008052  CLST         362          1.0000000000
      1086       362  TIP3  H2            4.7107538328       -3.4457927589       10.9879487474  CLST         362          1.0000000000
      1087       363  TIP3  OH2           5.1538224340       -4.1402597086       12.5953682715  CLST         363          1.0000000000
      1088       363  TIP3  H1            4.6188904700       -3.5730990658       13.1860644369  CLST         363          1.0000000000
      1089       363  TIP3  H2            6.0603456916       -4.0050186507       12.9681030442  CLST         363          1.0000000000
      1090       364  TIP3  OH2          -1.1155791730        4.7219357576       13.2682009139  CLST         364          1.0000000000
      1091       364  TIP3  H1           -0.2162930554        4.3595003047       13.4325772964  CLST         364          1.0000000000
      1092       364  TIP3  H2           -0.9430770553        5.6688905512       13.4608760407  CLST         364          1.0000000000
      1093       365  TIP3  OH2          -7.6477485065        4.8430474679      -11.6513831742  CLST         365          1.0000000000
      1094       365  TIP3  H1           -8.2218263176        5.0680733085      -10.8921902970  CLST         365          1.0000000000
      1095       365  TIP3  H2           -6.7710534332        4.9982687536      -11.2432268035  CLST         365          1.0000000000
      1096       366  TIP3  OH2         -10.2559512523       -2.8607202069        0.7110548319  CLST         366          1.0000000000
      1097       366  TIP3  H1          -11.1868152322       -2.8952133589        1.0089938989  CLST         366          1.0000000000
      1098       366  TIP3  H2          -10.4302745086       -2.7892079916       -0.2462962819  CLST         366          1.0000000000
      1099       367  TIP3  OH2          13.4500980067       10.3935496741       12.0605065768  CLST         367          1.0000000000
      1100       367  TIP3  H1           12.8998782442       11.1951886636       11.9960311012  CLST         367          1.0000000000
      1101       367  TIP3  H2           12.8095353839        9.8086759578       12.5171576679  CLST         367          1.0000000000
      1102       368  TIP3  OH2          -9.1727108666       -1.1055557964       12.5755631332  CLST         368          1.0000000000
      1103       368  TIP3  H1          -10.0317091105       -1.0373168227       12.1110694049  CLST         368          1.0000000000
      1104       368  TIP3  H2           -9.1570969270       -2.0571813888       12.7966917222  CLST         368          1.0000000000
      1105       369  TIP3  OH2           7.7634203046       10.2071685645       -2.3939096138  CLST         369          1.0000000000
      1106       369  TIP3  H1            8.7195716120       10.0858084052       -2.2630475141  CLST         369          1.0000000000
      1107       369  TIP3  H2            7.4625966903        9.2739768523       -2.4413293971  CLST         369          1.0000000000
      1108       370  TIP3  OH2          -6.8728112177      -13.4987763692       -0.9601619584  CLST         370          1.0000000000
      1109       370  TIP3  H1           -5.9231679062      -13.5707897291       -0.7178155460  CLST         370          1.0000000000
      1110       370  TIP3  H2           -7.3354766881      -13.6106803891       -0.1053627201  CLST         370          1.0000000000
      1111       371  TIP3  OH2           8.4977341407       12.6444063286        9.5583836057  CLST         371          1.0000000000
      1112       371  TIP3  H1            8.6432069416       12.1024439644        8.7558625802  CLST         371          1.0000000000
      1113       371  TIP3  H2            7.5342164533       12.5604871913        9.6875715058  CLST         371          1.0000000000
      1114       372  TIP3  OH2          -1.3163148765       10.9994882198       -2.3059253405  CLST         372          1.0000000000
      1115       372  TIP3  H1           -1.0604115531       10.7393719685       -3.2119285883  CLST         372          1.0000000000
      1116       372  TIP3  H2           -2.1480334413       10.4897327157       -2.2248579606  CLST         372          1.0000000000
      1117       373  TIP3  OH2           8.2746503791       -5.7857194075        7.4530563609  CLST         373          1.0000000000
      1118       373  TIP3  H1            8.0530849560       -6.6748729267        7.1121002803  CLST         373          1.0000000000
      1119       373  TIP3  H2            9.0596609099       -5.5928821493        6.8950594368  CLST         373          1.0000000000
      1120       374  TIP3  OH2          10.8950316721       -9.5943315060       -4.1738804791  CLST         374          1.0000000000
      1121       374  TIP3  H1           10.8889863005       -9.9039113067       -3.2484242113  CLST         374          1.0000000000
      1122       374  TIP3  H2           10.4247491425      -10.3496742885       -4.5870470674  CLST         374          1.0000000000
      1123       375  TIP3  OH2           1.9022817795       13.6587443202       -3.5155849357  CLST         375          1.0000000000
      1124       375  TIP3  H1            1.7287629120       13.6254414242       -2.5545101650  CLST         375          1.0000000000
      1125       375  TIP3  H2            1.0507486245       14.0268706891       -3.8113896498  CLST         375          1.0000000000
      1126       376  TIP3  OH2          10.7043317165        4.9059985019       -8.9795284848  CLST         376          1.0000000000
      1127       376  TIP3  H1            9.7517608174        4.9053779600       -8.7304117264  CLST         376          1.0000000000
      1128       376  TIP3  H2           10.6752642970        5.4490594504       -9.7985814079  CLST         376          1.0000000000
      1129       377  TIP3  OH2           8.1934184688       11.5131010393      -11.1091258320  CLST         377          1.0000000000
      1130       377  TIP3  H1            8.5090711807       12.1109766833      -11.8270990233  CLST         377          1.0000000000
      1131       377  TIP3  H2            8.9580191926       10.8860929495      -11.1115028370  CLST         377          1.0000000000
      1132       378  TIP3  OH2           6.8241216316        8.9489898263        7.0955567565  CLST         378          1.0000000000
      1133       378  TIP3  H1            7.1681976346        8.2999388894        7.7548860618  CLST         378          1.0000000000
      1134       378  TIP3  H2            6.0386751074        9.2874914133        7.5815166158  CLST         378          1.0000000000
      1135       379  TIP3  OH2          -6.4604463284      -10.9424898120       -1.8294781955  CLST         379          1.0000000000
      1136       379  TIP3  H1           -6.3394862768      -10.8726870252       -2.8087093137  CLST         379          1.0000000000
      1137       379  TIP3  H2           -6.7448275957      -11.8807288778       -1.7498572688  CLST         379          1.0000000000
      1138       380  TIP3  OH2           7.7829419728       11.7967268312        4.7931846150  CLST         380          1.0000000000
      1139       380  TIP3  H1            6.8161671641       11.9620041816        4.7851388947  CLST         380          1.0000000000
      1140       380  TIP3  H2            7.8235724098       11.1038151121        4.0987313296  CLST         380          1.0000000000
      1141       381  TIP3  OH2          -7.7921855393       -6.7352806271      -10.0303175933  CLST         381          1.0000000000
      1142       381  TIP3  H1           -8.2491491496       -6.2701829552      -10.7569799895  CLST         381          1.0000000000
      1143       381  TIP3  H2           -6.8901903755       -6.3628375474      -10.1215221993  CLST         381          1.0000000000
      1144       382  TIP3  OH2          -3.0940541511        2.1943069450       -1.7379805967  CLST         382          1.0000000000
      1145       382  TIP3  H1           -3.6860146235        2.7261662342       -2.3160382300  CLST         382          1.0000000000
      1146       382  TIP3  H2           -3.7567822609        1.5662791527       -1.3777340024  CLST         382          1.0000000000
      1147       383  TIP3  OH2          -7.5643905606       -8.5584736629        8.8702744176  CLST         383          1.0000000000
      1148       383  TIP3  H1           -7.0358775120       -7.8224979788        9.2372762287  CLST         383          1.0000000000
      1149       383  TIP3  H2           -6.8693972231       -9.0635317589        8.3956080460  CLST         383          1.0000000000
      1150       384  TIP3  OH2         -11.8140463612       -4.8884881400       12.9161179944  CLST         384          1.0000000000
      1151       384  TIP3  H1          -11.7620427310       -5.7697859161       13.3437703364  CLST         384          1.0000000000
      1152       384  TIP3  H2          -12.1472068455       -5.1383014049       12.0258912930  CLST         384          1.0000000000
      1153       385  TIP3  OH2           7.2441024027        0.0467185565        9.5755461085  CLST         385          1.0000000000
      1154       385  TIP3  H1            7.5764753075        0.9593400473        9.7347467640  CLST         385          1.0000000000
      1155       385  TIP3  H2            7.9010288136       -0.4457472960       10.1192002097  CLST         385          1.0000000000
      1156       386  TIP3  OH2         -12.7028174111       -8.9806512944        8.1745251995  CLST         386          1.0000000000
      1157       386  TIP3  H1          -12.6071069025       -8.7491742437        9.1170626874  CLST         386          1.0000000000
      1158       386  TIP3  H2          -11.9776678276       -9.6206779281        8.0526874507  CLST         386          1.0000000000
      1159       387  TIP3  OH2          -1.0313450810      -12.1366276382       -1.0051199223  CLST         387          1.0000000000
      1160       387  TIP3  H1           -1.4234114095      -12.2902969184       -0.1187434032  CLST         387          1.0000000000
      1161       387  TIP3  H2           -1.4595412028      -11.2951406490       -1.2689900475  CLST         387          1.0000000000
      1162       388  TIP3  OH2           3.6221832741        7.6155732721        6.8047726770  CLST         388          1.0000000000
      1163       388  TIP3  H1            2.7882495858        7.4584430115        6.3115733010  CLST         388          1.0000000000
      1164       388  TIP3  H2            4.2093213095        7.8766222109        6.0688398260  CLST         388          1.0000000000
      1165       389  TIP3  OH2          -4.3598122103      -10.8574222290        0.0469550636  CLST         389          1.0000000000
      1166       389  TIP3  H1           -5.0963140422      -10.5790878494        0.6147026405  CLST         389          1.0000000000
      1167       389  TIP3  H2           -4.8205101935      -10.9071274651       -0.8112323164  CLST         389          1.0000000000
      1168       390  TIP3  OH2          -1.0098086140        4.8280423395        4.8832031545  CLST         390          1.0000000000
      1169       390  TIP3  H1           -0.5287638384        4.6953432281        5.7203504754  CLST         390          1.0000000000
      1170       390  TIP3  H2           -0.5560024818        4.1368785698        4.3499034725  CLST         390          1.0000000000
      1171       391  TIP3  OH2          -5.8973344288       -4.4346386117        1.8206429680  CLST         391          1.0000000000
      1172       391  TIP3  H1           -5.9392014882       -3.4944169989        1.5455665535  CLST         391          1.0000000000
      1173       391  TIP3  H2           -6.8366475553       -4.5953951813        2.0400965963  CLST         391          1.0000000000
      1174       392  TIP3  OH2           5.0828695801        8.7668733096       -5.8550367980  CLST         392          1.0000000000
      1175       392  TIP3  H1            5.9712397831        8.4817973427       -5.5325874317  CLST         392          1.0000000000
      1176       392  TIP3  H2            4.7599699430        9.1642967639       -5.0106462160  CLST         392          1.0000000000
      1177       393  TIP3  OH2          13.4170314208       10.8279936448       -7.8097282869  CLST         393          1.0000000000
      1178       393  TIP3  H1           13.3084308059        9.8724839213       -8.0017887412  CLST         393          1.0000000000
      1179       393  TIP3  H2           12.7659811010       10.9489604463       -7.0892900262  CLST         393          1.0000000000
      1180       394  TIP3  OH2           1.3782382321        7.0365764449        5.4134174557  CLST         394          1.0000000000
      1181       394  TIP3  H1            0.7731079598        7.2408733730        4.6621733073  CLST         394          1.0000000000
      1182       394  TIP3  H2            1.7904294351        6.2073172717        5.0878038466  CLST         394          1.0000000000
      1183       395  TIP3  OH2          -6.0804623674        7.2363374432        0.8166144629  CLST         395          1.0000000000
      1184       395  TIP3  H1           -5.9867650825        6.3063180870        1.1012111981  CLST         395          1.0000000000
      1185       395  TIP3  H2           -5.1739848980        7.5545067167        1.0068603075  CLST         395          1.0000000000
      1186       396  TIP3  OH2          -3.5444571860        9.3466307003       -2.5107959483  CLST         396          1.0000000000
      1187       396  TIP3  H1           -3.6691435467        8.5397590255       -3.0488936984  CLST         396          1.0000000000
      1188       396  TIP3  H2           -4.4604615365        9.6997848487       -2.5369428125  CLST         396          1.0000000000
      1189       397  TIP3  OH2           2.6652109049      -12.7957383990      -13.2088339132  CLST         397          1.0000000000
      1190       397  TIP3  H1            2.0170035630      -12.0622808697      -13.1775478459  CLST         397          1.0000000000
      1191       397  TIP3  H2            3.3128646785      -12.4679487582      -12.5516887581  CLST         397          1.0000000000
      1192       398  TIP3  OH2           8.3340912921       -4.2174480872        1.1418157551  CLST         398          1.0000000000
      1193       398  TIP3  H1            8.0589438096       -4.9841090358        0.5940649955  CLST         398          1.0000000000
      1194       398  TIP3  H2            7.8162101613       -3.4867443596        0.7573919221  CLST         398          1.0000000000
      1195       399  TIP3  OH2         -13.5553793165       -2.8165516438       13.3804245654  CLST         399          1.0000000000
      1196       399  TIP3  H1          -12.9092465464       -3.5381757914       13.2191516429  CLST         399          1.0000000000
      1197       399  TIP3  H2          -13.6544563079       -2.9433113661       14.3469800996  CLST         399          1.0000000000
      1198       400  TIP3  OH2         -13.4593315152        8.4885930486        4.6760731300  CLST         400          1.0000000000
      1199       400  TIP3  H1          -13.7315994795        9.1647291512        5.3308562156  CLST         400          1.0000000000
      1200       400  TIP3  H2          -13.1377143538        7.8014935542        5.3001837931  CLST         400          1.0000000000
      1201       401  TIP3  OH2           1.8007051701        5.3204157166      -13.2136635199  CLST         401          1.0000000000
      1202       401  TIP3  H1            2.5448348381        5.6552318854      -13.7586731786  CLST         401          1.0000000000
      1203       401  TIP3  H2            1.2880114563        6.1439333449      -13.0579864981  CLST         401          1.0000000000
      1204       402  TIP3  OH2          14.0519296055       -5.2506198010       14.2483534848  CLST         402          1.0000000000
      1205       402  TIP3  H1           13.5491825020       -6.0721419706       14.0663845132  CLST         402          1.0000000000
      1206       402  TIP3  H2           14.6569042912       -5.5444727925       14.9500000000  CLST         402          1.0000000000
      1207       403  TIP3  OH2         -12.4289245350       11.5248515701       -3.0316451293  CLST         403          1.0000000000
      1208       403  TIP3  H1          -12.5674774678       10.6723837448       -3.4893951817  CLST         403          1.0000000000
      1209       403  TIP3  H2          -12.4425188288       12.1059394553       -3.8233229589  CLST         403          1.0000000000
      1210       404  TIP3  OH2           4.6107478255       -2.7066161709        0.2388288301  CLST         404          1.0000000000
      1211       404  TIP3  H1            4.1759966705       -2.1385483076        0.9150491953  CLST         404          1.0000000000
      1212       404  TIP3  H2            4.2682307341       -3.5845571054        0.5227176056  CLST         404          1.0000000000
      1213       405  TIP3  OH2           2.3567496922        8.0194840392       -3.2525636459  CLST         405          1.0000000000
      1214       405  TIP3  H1            2.1174735347        8.9179388612       -2.9377646966  CLST         405          1.0000000000
      1215       405  TIP3  H2            1.4473529196        7.6651727896       -3.3107643181  CLST         405          1.0000000000
      1216       406  TIP3  OH2          -8.5522821583       -2.4916803666       -7.2902197804  CLST         406          1.0000000000
      1217       406  TIP3  H1           -8.3444821973       -1.6626978862       -6.8016400449  CLST         406          1.0000000000
      1218       406  TIP3  H2           -9.5224082821       -2.4197179625       -7.3874075013  CLST         406          1.0000000000
      1219       407  TIP3  OH2           5.3792926950        5.4293748307        5.2655539552  CLST         407          1.0000000000
      1220       407  TIP3  H1            6.1341341409        6.0391838480        5.1582037580  CLST         407          1.0000000000
      1221       407  TIP3  H2            5.8313815923        4.6500078150        5.6308813152  CLST         407          1.0000000000
      1222       408  TIP3  OH2         -13.5645211219       -4.4217176500       -5.7010538081  CLST         408          1.0000000000
      1223       408  TIP3  H1          -13.3599983163       -3.4642813726       -5.7091073789  CLST         408          1.0000000000
      1224       408  TIP3  H2          -13.6523189359       -4.6087418497       -6.6616454102  CLST         408          1.0000000000
      1225       409  TIP3  OH2          -2.2658450975      -12.7098442090        1.4467788589  CLST         409          1.0000000000
      1226       409  TIP3  H1           -2.9339312778      -12.9942343620        2.1037169764  CLST         409          1.0000000000
      1227       409  TIP3  H2           -1.6856503455      -12.1584385681        2.0104469009  CLST         409          1.0000000000
      1228       410  TIP3  OH2          13.1547506870       -2.1024946233       11.0498454665  CLST         410          1.0000000000
      1229       410  TIP3  H1           12.9217790603       -1.2650356209       10.6032706213  CLST         410          1.0000000000
      1230       410  TIP3  H2           13.2017797457       -2.6866403669       10.2626559887  CLST         410          1.0000000000
      1231       411  TIP3  OH2           8.5213424187      -12.8601577885       -2.9119595348  CLST         411          1.0000000000
      1232       411  TIP3  H1            8.4968993605      -13.3340696424       -2.0547359011  CLST         411          1.0000000000
      1233       411  TIP3  H2            7.5590396214      -12.8078545539       -3.1055158326  CLST         411          1.0000000000
      1234       412  TIP3  OH2          13.1340122562       -4.7271493706       -7.6152968721  CLST         412          1.0000000000
      1235       412  TIP3  H1           12.5297350190       -4.5605874943       -8.3745810189  CLST         412          1.0000000000
      1236       412  TIP3  H2           12.6604212902       -4.2523657158       -6.8912440314  CLST         412          1.0000000000
      1237       413  TIP3  OH2           7.5536879801        8.0744390538       -5.0140948314  CLST         413          1.0000000000
      1238       413  TIP3  H1            7.5681437294        7.9047193952       -4.0446206537  CLST         413          1.0000000000
      1239       413  TIP3  H2            8.4114813141        8.5287217802       -5.1435724152  CLST         413          1.0000000000
      1240       414  TIP3  OH2          -9.1087066488       -5.3118486158      -12.1155539750  CLST         414          1.0000000000
      1241       414  TIP3  H1           -8.2816779339       -4.8577098265      -12.3997462823  CLST         414          1.0000000000
      1242       414  TIP3  H2           -9.7557131533       -4.5926516417      -12.2669455346  CLST         414          1.0000000000
      1243       415  TIP3  OH2          14.5849850960        1.0723556599        5.7170093105  CLST         415          1.0000000000
      1244       415  TIP3  H1           13.6417928668        1.3280611735        5.6260780427  CLST         415          1.0000000000
      1245       415  TIP3  H2           14.9500000000        1.9162374819        6.0404532591  CLST         415          1.0000000000
      1246       416  TIP3  OH2          10.8789612735       12.1856011287       -2.7409840842  CLST         416          1.0000000000
      1247       416  TIP3  H1           11.7576850867       12.4123020229       -3.1135434607  CLST         416          1.0000000000
      1248       416  TIP3  H2           10.2895936322       12.5466703700       -3.4296547397  CLST         416          1.0000000000
      1249       417  TIP3  OH2           9.7193109184      -11.8437517371       -5.1963726922  CLST         417          1.0000000000
      1250       417  TIP3  H1            9.2997955516      -12.3487413040       -4.4636581144  CLST         417          1.0000000000
      1251       417  TIP3  H2            9.3577199410      -12.3012808857       -5.9888950778  CLST         417          1.0000000000
      1252       418  TIP3  OH2          -1.8275213985        5.9580519232        1.6855101935  CLST         418          1.0000000000
      1253       418  TIP3  H1           -2.3865294627        6.7109729953        1.4055849088  CLST         418          1.0000000000
      1254       418  TIP3  H2           -2.3699629961        5.6197128253        2.4278898963  CLST         418          1.0000000000
      1255       419  TIP3  OH2          -8.9477522207        9.4709374753        8.0648029322  CLST         419          1.0000000000
      1256       419  TIP3  H1           -8.5197468119       10.3413945835        8.1307802608  CLST         419          1.0000000000
      1257       419  TIP3  H2           -9.8382337059        9.7585311129        7.7713843304  CLST         419          1.0000000000
      1258       420  TIP3  OH2           2.6942211362        9.0506013685      -13.7691942814  CLST         420          1.0000000000
      1259       420  TIP3  H1            3.4319601200        8.9542588766      -13.1325987276  CLST         420          1.0000000000
      1260       420  TIP3  H2            2.0671080520        8.3855502140      -13.4221285430  CLST         420          1.0000000000
      1261       421  TIP3  OH2          -3.9889922427        6.8254279816       -3.5407186299  CLST         421          1.0000000000
      1262       421  TIP3  H1           -4.7469076186        6.3686736480       -3.9761840795  CLST         421          1.0000000000
      1263       421  TIP3  H2           -3.9960690487        6.4009445925       -2.6546362308  CLST         421          1.0000000000
      1264       422  TIP3  OH2           3.8020733797      -10.8704003635       -2.5248197373  CLST         422          1.0000000000
      1265       422  TIP3  H1            2.9708352140      -11.3886609764       -2.5059156995  CLST         422          1.0000000000
      1266       422  TIP3  H2            3.7080819081      -10.4294553558       -1.6474566621  CLST         422          1.0000000000
      1267       423  TIP3  OH2          -5.1817531535        4.7409150669        1.7640379366  CLST         423          1.0000000000
      1268       423  TIP3  H1           -4.7590303424        3.8683307938        1.6034928690  CLST         423          1.0000000000
      1269       423  TIP3  H2           -4.6252723400        5.0504080783        2.5115110098  CLST         423          1.0000000000
      1270       424  TIP3  OH2         -10.3476495596        7.4455191667        4.5263901578  CLST         424          1.0000000000
      1271       424  TIP3  H1          -11.1240346782        7.6082039544        5.0886103296  CLST         424          1.0000000000
      1272       424  TIP3  H2          -10.0722274461        6.5788730692        4.8906740077  CLST         424          1.0000000000
      1273       425  TIP3  OH2          -9.9179550331        2.6308116841       -9.4004517650  CLST         425          1.0000000000
      1274       425  TIP3  H1          -10.2029877613        1.7179468522       -9.5880970360  CLST         425          1.0000000000
      1275       425  TIP3  H2          -10.7127055270        3.0305214958       -8.9902208126  CLST         425          1.0000000000
      1276       426  TIP3  OH2          -0.6194092200       -8.6720620354       -4.2043329834  CLST         426          1.0000000000
      1277       426  TIP3  H1            0.3498807621       -8.8169933466       -4.2943914942  CLST         426          1.0000000000
      1278       426  TIP3  H2           -0.8589707074       -8.7923150501       -5.1494061791  CLST         426          1.0000000000
      1279       427  TIP3  OH2          -9.7042672817        2.7875718157        5.4844602370  CLST         427          1.0000000000
      1280       427  TIP3  H1           -9.4878206797        3.7363645682        5.6190898124  CLST         427          1.0000000000
      1281       427  TIP3  H2          -10.4546326940        2.6753486806        6.1096771351  CLST         427          1.0000000000
      1282       428  TIP3  OH2          -5.5055301991       12.5982454070        6.9565738727  CLST         428          1.0000000000
      1283       428  TIP3  H1           -5.7243840303       12.4982284997        6.0105106037  CLST         428          1.0000000000
      1284       428  TIP3  H2           -5.0466735927       11.7434946075        7.0989607151  CLST         428          1.0000000000
      1285       429  TIP3  OH2           0.9652974964      -11.2038010788      -10.0420050143  CLST         429          1.0000000000
      1286       429  TIP3  H1            0.2210856980      -11.8175282659      -10.2079780552  CLST         429          1.0000000000
      1287       429  TIP3  H2            1.0508747212      -11.3057528651       -9.0752898293  CLST         429          1.0000000000
      1288       430  TIP3  OH2           1.0474210733        9.5942418450        9.7777836882  CLST         430          1.0000000000
      1289       430  TIP3  H1            0.3416482552       10.2264361209       10.0323206766  CLST         430          1.0000000000
      1290       430  TIP3  H2            1.5691249358        9.5650659550       10.6084903156  CLST         430          1.0000000000
      1291       431  TIP3  OH2          -5.4657446278       -2.8372859643       -3.8720253017  CLST         431          1.0000000000
      1292       431  TIP3  H1           -4.8395124570       -2.7852459692       -4.6242240182  CLST         431          1.0000000000
      1293       431  TIP3  H2           -6.2304279975       -3.2550250795       -4.3364582152  CLST         431          1.0000000000
      1294       432  TIP3  OH2          -4.9648976839        3.6123498625       -3.1442292205  CLST         432          1.0000000000
      1295       432  TIP3  H1           -5.1568790227        4.1440077908       -3.9446879419  CLST         432          1.0000000000
      1296       432  TIP3  H2           -5.4842261591        4.1113513450       -2.4757673514  CLST         432          1.0000000000
      1297       433  TIP3  OH2          -8.6334178137        2.6485584142        9.8580585814  CLST         433          1.0000000000
      1298       433  TIP3  H1           -7.9633139843        3.0643759873        9.2873574947  CLST         433          1.0000000000
      1299       433  TIP3  H2           -8.9905988509        3.4485238885       10.3104320010  CLST         433          1.0000000000
      1300       434  TIP3  OH2           1.0569019809       -4.1557343373       10.1693809882  CLST         434          1.0000000000
      1301       434  TIP3  H1            0.2637799797       -3.7842309358       10.6105474677  CLST         434          1.0000000000
      1302       434  TIP3  H2            1.3345323354       -3.4016451791        9.6075572464  CLST         434          1.0000000000
      1303       435  TIP3  OH2           7.6119727258       -8.0937829460        6.0725989143  CLST         435          1.0000000000
      1304       435  TIP3  H1            7.7080715047       -8.0371687398        5.0983031144  CLST         435          1.0000000000
      1305       435  TIP3  H2            6.6796146539       -7.7990112663        6.1440016574  CLST         435          1.0000000000
      1306       436  TIP3  OH2          -6.7575689903       13.7781197674       -1.3508310129  CLST         436          1.0000000000
      1307       436  TIP3  H1           -6.8934905396       14.7278504033       -1.5493024433  CLST         436          1.0000000000
      1308       436  TIP3  H2           -6.6670236895       13.8250150161       -0.3752261272  CLST         436          1.0000000000
      1309       437  TIP3  OH2          -0.9913116974      -12.8065367841        5.3561140506  CLST         437          1.0000000000
      1310       437  TIP3  H1           -1.8381550130      -12.3289888527        5.2277148016  CLST         437          1.0000000000
      1311       437  TIP3  H2           -0.3542539117      -12.0568645492        5.3104865028  CLST         437          1.0000000000
      1312       438  TIP3  OH2         -11.6186364653       -0.7954106833       -3.2634534035  CLST         438          1.0000000000
      1313       438  TIP3  H1          -11.6533883633       -1.5269274224       -2.6069812922  CLST         438          1.0000000000
      1314       438  TIP3  H2          -12.2797750774       -0.1739015215       -2.8971047851  CLST         438          1.0000000000
      1315       439  TIP3  OH2          -3.5883901119       -4.2697001052        3.3813158005  CLST         439          1.0000000000
      1316       439  TIP3  H1           -3.9766380624       -3.8790354389        4.1876022852  CLST         439          1.0000000000
      1317       439  TIP3  H2           -4.3925152932       -4.4969904012        2.8640530711  CLST         439          1.0000000000
      1318       440  TIP3  OH2         -10.0436308216      -11.8024612524       12.1536818949  CLST         440          1.0000000000
      1319       440  TIP3  H1           -9.7101286297      -11.2953168772       11.3809104875  CLST         440          1.0000000000
      1320       440  TIP3  H2          -10.1055475708      -12.6920180455       11.7843402370  CLST         440          1.0000000000
      1321       441  TIP3  OH2         -14.1471657190        3.7446274734        6.4359857062  CLST         441          1.0000000000
      1322       441  TIP3  H1          -14.1207411290        4.5935848189        6.9340805573  CLST         441          1.0000000000
      1323       441  TIP3  H2          -14.5390188213        4.0327821309        5.5777443009  CLST         441          1.0000000000
      1324       442  TIP3  OH2           9.3537595547       -0.0851309319      -12.5432850196  CLST         442          1.0000000000
      1325       442  TIP3  H1            9.2554132187       -0.9975099124      -12.1755118631  CLST         442          1.0000000000
      1326       442  TIP3  H2           10.3364333813       -0.0456676400      -12.5615261510  CLST         442          1.0000000000
      1327       443  TIP3  OH2           7.7961398661       -7.8146473048        3.3736370019  CLST         443          1.0000000000
      1328       443  TIP3  H1            8.6247749953       -7.3259846445        3.1950736410  CLST         443          1.0000000000
      1329       443  TIP3  H2            7.1256104367       -7.2489694467        2.9353399014  CLST         443          1.0000000000
      1330       444  TIP3  OH2          12.9465763627        7.1783667850       -0.7572161190  CLST         444          1.0000000000
      1331       444  TIP3  H1           12.9510846484        7.9311331442       -0.1423750772  CLST         444          1.0000000000
      1332       444  TIP3  H2           13.6036890658        6.5762315517       -0.3535094003  CLST         444          1.0000000000
      1333       445  TIP3  OH2          -8.2954189606       -9.2687572212      -14.7526682186  CLST         445          1.0000000000
      1334       445  TIP3  H1           -8.7024662739       -8.3837628795      -14.7763929219  CLST         445          1.0000000000
      1335       445  TIP3  H2           -8.1625141321       -9.3487068359      -13.7865177707  CLST         445          1.0000000000
      1336       446  TIP3  OH2          12.5398795826        9.5821087271        0.6038689083  CLST         446          1.0000000000
      1337       446  TIP3  H1           12.3075302875       10.3087130204        1.2201391630  CLST         446          1.0000000000
      1338       446  TIP3  H2           11.9584050689        9.7722691198       -0.1570334627  CLST         446          1.0000000000
      1339       447  TIP3  OH2          -3.1706695205       13.2024288706        4.4671121176  CLST         447          1.0000000000
      1340       447  TIP3  H1           -3.3075668442       13.7463849623        5.2710871615  CLST         447          1.0000000000
      1341       447  TIP3  H2           -4.0513413894       12.7833857416        4.3569940383  CLST         447          1.0000000000
      1342       448  TIP3  OH2         -11.0601143553        9.0944087032      -12.3507008382  CLST         448          1.0000000000
      1343       448  TIP3  H1          -10.4393193491        9.5427954780      -11.7321240949  CLST         448          1.0000000000
      1344       448  TIP3  H2          -10.5018973441        8.3372521962      -12.6241842416  CLST         448          1.0000000000
      1345       449  TIP3  OH2           5.9290785188       -7.2568872518       -5.9066642293  CLST         449          1.0000000000
      1346       449  TIP3  H1            5.5654768363       -7.9721766908       -5.3492884143  CLST         449          1.0000000000
      1347       449  TIP3  H2            5.1306140821       -6.7176763010       -6.0878794573  CLST         449          1.0000000000
      1348       450  TIP3  OH2           5.0241262703        9.9327379576       10.9438524198  CLST         450          1.0000000000
      1349       450  TIP3  H1            5.8974216937        9.4958384798       11.0435229299  CLST         450          1.0000000000
      1350       450  TIP3  H2            4.8322270803        9.7530709448        9.9964195862  CLST         450          1.0000000000
      1351       451  TIP3  OH2         -12.6943379019       11.3030877031      -12.1611449380  CLST         451          1.0000000000
      1352       451  TIP3  H1          -12.7555685060       11.7861369333      -12.9900703556  CLST         451          1.0000000000
      1353       451  TIP3  H2          -12.1106545158       10.5520855725      -12.3930175381  CLST         451          1.0000000000
      1354       452  TIP3  OH2         -10.1078641610       14.2784751852        2.8938567594  CLST         452          1.0000000000
      1355       452  TIP3  H1          -10.7589218726       13.6095450690        2.5785085355  CLST         452          1.0000000000
      1356       452  TIP3  H2          -10.6993147633       14.9500000000        3.2545827331  CLST         452          1.0000000000
      1357       453  TIP3  OH2          -3.0470294595       -8.7741587506      -12.8717302232  CLST         453          1.0000000000
      1358       453  TIP3  H1           -3.9372453568       -8.8718274748      -12.4771838559  CLST         453          1.0000000000
      1359       453  TIP3  H2           -3.1919972250       -9.1751941589      -13.7502689844  CLST         453          1.0000000000
      1360       454  TIP3  OH2          13.0026351954      -11.8149393386       11.0182687991  CLST         454          1.0000000000
      1361       454  TIP3  H1           13.9489675565      -12.0145612097       11.1447452232  CLST         454          1.0000000000
      1362       454  TIP3  H2           12.9046116801      -11.1455406466       11.7174838850  CLST         454          1.0000000000
      1363       455  TIP3  OH2         -13.0596207999       -9.4409391263       -4.5749897735  CLST         455          1.0000000000
      1364       455  TIP3  H1          -13.5067642069       -8.5663604778       -4.5993017841  CLST         455          1.0000000000
      1365       455  TIP3  H2          -12.3017595321       -9.2414269152       -3.9850671366  CLST         455          1.0000000000
      1366       456  TIP3  OH2          -7.5729403157        7.6502385931        6.5698900057  CLST         456          1.0000000000
      1367       456  TIP3  H1           -8.0837722802        8.2632593481        7.1507351309  CLST         456          1.0000000000
      1368       456  TIP3  H2           -7.1878404214        8.3005189095        5.9496131776  CLST         456          1.0000000000
      1369       457  TIP3  OH2          -3.8529646452      -12.1064948088        8.5317975497  CLST         457          1.0000000000
      1370       457  TIP3  H1           -4.0330361443      -12.5161954534        9.4029292936  CLST         457          1.0000000000
      1371       457  TIP3  H2           -2.9498194967      -12.4527412537        8.3658383910  CLST         457          1.0000000000
      1372       458  TIP3  OH2          -2.0892696114       12.7158290725      -11.3388564136  CLST         458          1.0000000000
      1373       458  TIP3  H1           -3.0627551367       12.7688855432      -11.3685380524  CLST         458          1.0000000000
      1374       458  TIP3  H2           -1.9532221746       11.7629450050      -11.5220481125  CLST         458          1.0000000000
      1375       459  TIP3  OH2         -13.5830497648        7.4232629435       -3.7515647084  CLST         459          1.0000000000
      1376       459  TIP3  H1          -13.6762413898        7.6813153295       -2.8111954401  CLST         459          1.0000000000
      1377       459  TIP3  H2          -13.3001176259        8.2659033723       -4.1704138960  CLST         459          1.0000000000
      1378       460  TIP3  OH2           6.7154963649        9.1558848897      -13.6199228081  CLST         460          1.0000000000
      1379       460  TIP3  H1            5.9675480854        9.1503011699      -12.9811707630  CLST         460          1.0000000000
      1380       460  TIP3  H2            6.6656395225       10.0708012014      -13.9711953953  CLST         460          1.0000000000
      1381       461  TIP3  OH2           0.6587947623        7.6573650226      -12.5420220200  CLST         461          1.0000000000
      1382       461  TIP3  H1           -0.3070044041        7.4910256725      -12.4880223627  CLST         461          1.0000000000
      1383       461  TIP3  H2            0.7599615682        8.2555867392      -11.7693714847  CLST         461          1.0000000000
      1384       462  TIP3  OH2           4.3418729727        7.1780457702       -9.6938409736  CLST         462          1.0000000000
      1385       462  TIP3  H1            3.8026930244        6.4844757605      -10.1421760634  CLST         462          1.0000000000
      1386       462  TIP3  H2            4.4372776908        6.7607070291       -8.8067315278  CLST         462          1.0000000000
      1387       463  TIP3  OH2          -1.9876171137      -11.4769931064       -7.0088112795  CLST         463          1.0000000000
      1388       463  TIP3  H1           -2.7029581294      -11.8263457154       -7.5808978941  CLST         463          1.0000000000
      1389       463  TIP3  H2           -2.3501872651      -11.6353346591       -6.1142879154  CLST         463          1.0000000000
      1390       464  TIP3  OH2          -2.2406554140        2.3037221231       13.9630758148  CLST         464          1.0000000000
      1391       464  TIP3  H1           -3.0575431787        2.0374131153       13.4938661524  CLST         464          1.0000000000
      1392       464  TIP3  H2           -2.1820491490        3.2680378468       13.7986884908  CLST         464          1.0000000000
      1393       465  TIP3  OH2         -14.3171607389        5.7877970631        8.2404376810  CLST         465          1.0000000000
      1394       465  TIP3  H1          -14.5916545726        5.3126299671        9.0523760647  CLST         465          1.0000000000
      1395       465  TIP3  H2          -14.4471949991        6.7210473213        8.5225548304  CLST         465          1.0000000000
      1396       466  TIP3  OH2          -4.2856527206      -13.2747731976        3.2674467798  CLST         466          1.0000000000
      1397       466  TIP3  H1           -4.6844995924      -14.1155976610        3.5622865619  CLST         466          1.0000000000
      1398       466  TIP3  H2           -5.0907742104      -12.8080590979        2.9560322853  CLST         466          1.0000000000
      1399       467  TIP3  OH2           5.4478717812       13.7784040509        7.8001725634  CLST         467          1.0000000000
      1400       467  TIP3  H1            5.7098386155       14.4956787532        8.4184817572  CLST         467          1.0000000000
      1401       467  TIP3  H2            5.5536323196       13.0250573245        8.4017715234  CLST         467          1.0000000000
      1402       468  TIP3  OH2          -8.5992310696       -1.0423575694        1.9868379359  CLST         468          1.0000000000
      1403       468  TIP3  H1           -8.8488963576       -1.0190948979        2.9352615156  CLST         468          1.0000000000
      1404       468  TIP3  H2           -9.2955489893       -1.6203277707        1.6064905459  CLST         468          1.0000000000
      1405       469  TIP3  OH2           7.0709224090        0.8695396851       14.8004164984  CLST         469          1.0000000000
      1406       469  TIP3  H1            6.1994948981        0.5482365985       14.4792947595  CLST         469          1.0000000000
      1407       469  TIP3  H2            7.3011901845        1.5257383163       14.1103366016  CLST         469          1.0000000000
      1408       470  TIP3  OH2           1.2919670912       10.9510835008       -8.3475447759  CLST         470          1.0000000000
      1409       470  TIP3  H1            1.6492262769       11.8673804835       -8.3674232883  CLST         470          1.0000000000
      1410       470  TIP3  H2            2.0771650772       10.4558321531       -8.0369498410  CLST         470          1.0000000000
      1411       471  TIP3  OH2           5.4717082135        5.5214687966       -2.3231108085  CLST         471          1.0000000000
      1412       471  TIP3  H1            4.8992540023        5.3785004861       -3.0982549264  CLST         471          1.0000000000
      1413       471  TIP3  H2            4.7735087547        5.6503666872       -1.6431472143  CLST         471          1.0000000000
      1414       472  TIP3  OH2           5.1435550765      -11.9522040401       -7.4488124265  CLST         472          1.0000000000
      1415       472  TIP3  H1            4.8760294174      -12.5784149879       -8.1491360751  CLST         472          1.0000000000
      1416       472  TIP3  H2            5.4466748502      -12.5793026007       -6.7581037013  CLST         472          1.0000000000
      1417       473  TIP3  OH2          -3.8976368205        2.3478656192        1.4884821285  CLST         473          1.0000000000
      1418       473  TIP3  H1           -2.9469627764        2.2543380291        1.2637662384  CLST         473          1.0000000000
      1419       473  TIP3  H2           -4.2897998891        1.7304733729        0.8407416895  CLST         473          1.0000000000
      1420       474  TIP3  OH2           8.1500563136        4.4286493435        8.0792032844  CLST         474          1.0000000000
      1421       474  TIP3  H1            7.7175148237        4.0144794573        7.3082724529  CLST         474          1.0000000000
      1422       474  TIP3  H2            9.0945141017        4.4490523269        7.8159140685  CLST         474          1.0000000000
      1423       475  TIP3  OH2           5.9295921062       -3.5779353667       -7.5696360853  CLST         475          1.0000000000
      1424       475  TIP3  H1            5.7240240430       -3.2540115352       -8.4714848541  CLST         475          1.0000000000
      1425       475  TIP3  H2            6.4550466088       -2.8122535963       -7.2495887025  CLST         475          1.0000000000
      1426       476  TIP3  OH2           3.5969098523        9.4404124904       -8.1484084243  CLST         476          1.0000000000
      1427       476  TIP3  H1            3.7935172329        8.6343209203       -8.6654732345  CLST         476          1.0000000000
      1428       476  TIP3  H2            4.0135814279        9.2263891694       -7.2902272505  CLST         476          1.0000000000
      1429       477  TIP3  OH2          -7.5759232906       -3.5886281972       -9.6086690365  CLST         477          1.0000000000
      1430       477  TIP3  H1           -6.7697749326       -4.1227238552       -9.5383611829  CLST         477          1.0000000000
      1431       477  TIP3  H2           -7.6798265555       -3.2128409760       -8.7098637846  CLST         477          1.0000000000
      1432       478  TIP3  OH2           0.7246715603       -4.3944006293      -11.5826794674  CLST         478          1.0000000000
      1433       478  TIP3  H1            1.1776883615       -5.1944938371      -11.9279808894  CLST         478          1.0000000000
      1434       478  TIP3  H2            1.2965063129       -4.2507800491      -10.7946068435  CLST         478          1.0000000000
      1435       479  TIP3  OH2           0.4742322649       -1.3265209355       -6.9657075732  CLST         479          1.0000000000
      1436       479  TIP3  H1            0.6416379083       -1.3006995056       -5.9978236402  CLST         479          1.0000000000
      1437       479  TIP3  H2            1.3796494943       -1.1131693721       -7.2810415751  CLST         479          1.0000000000
      1438       480  TIP3  OH2           4.9680436359       -1.0737810398        8.3726552119  CLST         480          1.0000000000
      1439       480  TIP3  H1            4.8085124786       -1.9096315543        8.8615184111  CLST         480          1.0000000000
      1440       480  TIP3  H2            5.8590063964       -0.8368896305        8.6912054790  CLST         480          1.0000000000
      1441       481  TIP3  OH2          -8.1059147198        2.1305656184       -6.8583145202  CLST         481          1.0000000000
      1442       481  TIP3  H1           -8.2219479124        3.1000270545       -6.7681060600  CLST         481          1.0000000000
      1443       481  TIP3  H2           -7.8253566034        2.0986071727       -7.7917518709  CLST         481          1.0000000000
      1444       482  TIP3  OH2           3.4631957123       -8.5357404420        4.6305422581  CLST         482          1.0000000000
      1445       482  TIP3  H1            3.2776200268       -8.9315837752        5.5060443108  CLST         482          1.0000000000
      1446       482  TIP3  H2            4.1373919168       -7.8734218272        4.8868165058  CLST         482          1.0000000000
      1447       483  TIP3  OH2          14.0107783706       -0.0148135939       -7.0015417369  CLST         483          1.0000000000
      1448       483  TIP3  H1           14.1149475303       -0.9060055131       -7.4017244881  CLST         483          1.0000000000
      1449       483  TIP3  H2           14.9500000000        0.2385385530       -6.8740333913  CLST         483          1.0000000000
      1450       484  TIP3  OH2          14.4031898214       -2.3503474429       -8.3814962449  CLST         484          1.0000000000
      1451       484  TIP3  H1           14.1404224391       -3.2519330780       -8.1067116330  CLST         484          1.0000000000
      1452       484  TIP3  H2           13.7150909747       -2.1299351175       -9.0428409806  CLST         484          1.0000000000
      1453       485  TIP3  OH2          -3.4703005046        5.3609857555        3.7994749228  CLST         485          1.0000000000
      1454       485  TIP3  H1           -2.6836984379        5.0925163803        4.3240901926  CLST         485          1.0000000000
      1455       485  TIP3  H2           -4.0649928380        5.7048571648        4.5008115233  CLST         485          1.0000000000
      1456       486  TIP3  OH2          10.4266917879       11.8072227806       -8.6650731805  CLST         486          1.0000000000
      1457       486  TIP3  H1           10.9188480370       11.7984412411       -7.8233842080  CLST         486          1.0000000000
      1458       486  TIP3  H2           11.1502961656       11.8368684238       -9.3275532870  CLST         486          1.0000000000
      1459       487  TIP3  OH2           1.8042197646       -5.3356022868        3.0609970490  CLST         487          1.0000000000
      1460       487  TIP3  H1            2.1667666461       -4.6327396815        3.6458450468  CLST         487          1.0000000000
      1461       487  TIP3  H2            0.8494554764       -5.1496577431        3.1618316473  CLST         487          1.0000000000
      1462       488  TIP3  OH2         -11.3155176684       -0.6965120315       10.9304981721  CLST         488          1.0000000000
      1463       488  TIP3  H1          -11.9079951988        0.0846863593       10.9319986604  CLST         488          1.0000000000
      1464       488  TIP3  H2          -10.6942826622       -0.4422653814       10.2114383362  CLST         488          1.0000000000
      1465       489  TIP3  OH2          -8.7982739864        7.9747363727       -4.3005256604  CLST         489          1.0000000000
      1466       489  TIP3  H1           -8.6598112413        8.3431079331       -3.4137757585  CLST         489          1.0000000000
      1467       489  TIP3  H2           -8.6052146430        7.0243694207       -4.1790422621  CLST         489          1.0000000000
      1468       490  TIP3  OH2         -10.8937776869       10.8254857169        4.3831548071  CLST         490          1.0000000000
      1469       490  TIP3  H1          -11.3601961778       10.3341013536        3.6811554341  CLST         490          1.0000000000
      1470       490  TIP3  H2           -9.9612614880       10.7259793189        4.0924488245  CLST         490          1.0000000000
      1471       491  TIP3  OH2          -2.1626784210       -9.5249123603       10.7969654011  CLST         491          1.0000000000
      1472       491  TIP3  H1           -1.6956301978       -9.7806030138        9.9820670573  CLST         491          1.0000000000
      1473       491  TIP3  H2           -1.4946268328       -8.9603136421       11.2329150684  CLST         491          1.0000000000
      1474       492  TIP3  OH2          -1.5770265402       10.1178839957        2.9161199989  CLST         492          1.0000000000
      1475       492  TIP3  H1           -0.8576113701       10.7733314423        2.9774703865  CLST         492          1.0000000000
      1476       492  TIP3  H2           -2.0198121622       10.4056907317        2.0886560409  CLST         492          1.0000000000
      1477       493  TIP3  OH2          -6.1380603297       10.1708679445       -2.4848442941  CLST         493          1.0000000000
      1478       493  TIP3  H1           -6.8707892065        9.5879013496       -2.2157014346  CLST         493          1.0000000000
      1479       493  TIP3  H2           -6.6427263152       10.8282336334       -3.0107180873  CLST         493          1.0000000000
      1480       494  TIP3  OH2         -13.7666245697       10.3739319650       12.2620815238  CLST         494          1.0000000000
      1481       494  TIP3  H1          -14.7303544890       10.5467586656       12.1949398629  CLST         494          1.0000000000
      1482       494  TIP3  H2          -13.3787488121       11.2553217113       12.0655622896  CLST         494          1.0000000000
      1483       495  TIP3  OH2           4.3364436602      -12.6346066101       14.1940324219  CLST         495          1.0000000000
      1484       495  TIP3  H1            3.7219984204      -12.6918168977       14.9500000000  CLST         495          1.0000000000
      1485       495  TIP3  H2            4.1240308681      -11.7590058697       13.8170581805  CLST         495          1.0000000000
      1486       496  TIP3  OH2         -14.9500000000        5.7495292987        0.4939787391  CLST         496          1.0000000000
      1487       496  TIP3  H1          -14.5109133872        6.0976087493        1.3073343554  CLST         496          1.0000000000
      1488       496  TIP3  H2          -14.9414162390        4.8003718032        0.6721833985  CLST         496          1.0000000000
      1489       497  TIP3  OH2         -12.8553858302       -9.0623318910        3.4042723039  CLST         497          1.0000000000
      1490       497  TIP3  H1          -13.5722185074       -9.4506880330        2.8706038284  CLST         497          1.0000000000
      1491       497  TIP3  H2          -13.2923605834       -9.0189696146        4.2913697195  CLST         497          1.0000000000
      1492       498  TIP3  OH2           3.9154105463       14.0707724009      -10.9323945872  CLST         498          1.0000000000
      1493       498  TIP3  H1            4.6460667749       13.5902921399      -11.3924643097  CLST         498          1.0000000000
      1494       498  TIP3  H2            4.3960919455       14.8008349719      -10.5007596322  CLST         498          1.0000000000
      1495       499  TIP3  OH2           1.6168704206       10.5140541229       -2.5041769267  CLST         499          1.0000000000
      1496       499  TIP3  H1            0.7951202526       10.7929295861       -2.0620329631  CLST         499          1.0000000000
      1497       499  TIP3  H2            2.3021509193       10.9771844089       -1.9723422795  CLST         499          1.0000000000
      1498       500  TIP3  OH2          -6.5412084863       -2.5368999288        4.3053082697  CLST         500          1.0000000000
      1499       500  TIP3  H1           -7.3497963439       -1.9895227533        4.3174146802  CLST         500          1.0000000000
      1500       500  TIP3  H2           -5.9225554470       -1.9510162858        3.8294840141  CLST         500          1.0000000000
      1501       501  TIP3  OH2         -11.6744662036      -13.0836714121       -6.5559389055  CLST         501          1.0000000000
      1502       501  TIP3  H1          -12.0577569165      -12.7575439054       -7.3828326600  CLST         501          1.0000000000
      1503       501  TIP3  H2          -10.9248711878      -12.4631448653       -6.4362087456  CLST         501          1.0000000000
      1504       502  TIP3  OH2          -1.9106834246       -3.9810610364      -10.8500349785  CLST         502          1.0000000000
      1505       502  TIP3  H1           -1.6232402343       -3.5241263867      -10.0327349109  CLST         502          1.0000000000
      1506       502  TIP3  H2           -1.0410715074       -4.1412431219      -11.2753972231  CLST         502          1.0000000000
      1507       503  TIP3  OH2          -0.2519867892       -4.1288931381        0.9805368540  CLST         503          1.0000000000
      1508       503  TIP3  H1            0.4227063087       -4.5515896055        0.4078240569  CLST         503          1.0000000000
      1509       503  TIP3  H2           -1.0575991898       -4.2814259995        0.4376144237  CLST         503          1.0000000000
      1510       504  TIP3  OH2          -4.3865587527       -3.7968568713       12.4172742516  CLST         504          1.0000000000
      1511       504  TIP3  H1           -5.2310539762       -3.9554119208       12.8801092688  CLST         504          1.0000000000
      1512       504  TIP3  H2           -3.8149629503       -3.5471547685       13.1721081542  CLST         504          1.0000000000
      1513       505  TIP3  OH2           5.7185802875       12.4979515076       -8.7603651731  CLST         505          1.0000000000
      1514       505  TIP3  H1            5.9956879433       11.7237597055       -8.2214781975  CLST         505          1.0000000000
      1515       505  TIP3  H2            6.5929949127       12.8950050806       -8.9354938253  CLST         505          1.0000000000
      1516       506  TIP3  OH2          -4.0433722861        3.1226734525       10.4249311475  CLST         506          1.0000000000
      1517       506  TIP3  H1           -4.7714685274        2.5414850883       10.1240902897  CLST         506          1.0000000000
      1518       506  TIP3  H2           -3.3847646955        2.4267911801       10.6302451435  CLST         506          1.0000000000
      1519       507  TIP3  OH2          -2.0201228866        7.3100621467      -11.9681513799  CLST         507          1.0000000000
      1520       507  TIP3  H1           -1.8965734422        6.4193843476      -11.5717324949  CLST         507          1.0000000000
      1521       507  TIP3  H2           -2.9860149529        7.2768223166      -12.1341311288  CLST         507          1.0000000000
      1522       508  TIP3  OH2         -11.2217741724        5.0758042539      -11.4338604074  CLST         508          1.0000000000
      1523       508  TIP3  H1          -12.0652194907        5.2567937409      -10.9731737789  CLST         508          1.0000000000
      1524       508  TIP3  H2          -11.3997012515        4.1605480364      -11.7569036655  CLST         508          1.0000000000
      1525       509  TIP3  OH2           5.1181750164        1.3908406914      -10.6204270606  CLST         509          1.0000000000
      1526       509  TIP3  H1            5.4220848020        0.8167428770       -9.8917477496  CLST         509          1.0000000000
      1527       509  TIP3  H2            5.6166133945        1.0062049699      -11.3796193696  CLST         509          1.0000000000
      1528       510  TIP3  OH2          -4.3327309863        0.1078864109       -4.0573685552  CLST         510          1.0000000000
      1529       510  TIP3  H1           -4.6768654790       -0.1442292780       -4.9403137635  CLST         510          1.0000000000
      1530       510  TIP3  H2           -3.5442935896        0.6240472734       -4.3239404947  CLST         510          1.0000000000
      1531       511  TIP3  OH2         -10.2454784289        1.5679038396       -1.2976213532  CLST         511          1.0000000000
      1532       511  TIP3  H1          -10.8249839334        2.1519126124       -0.7610996862  CLST         511          1.0000000000
      1533       511  TIP3  H2          -10.6521708151        0.7051720279       -1.1028631638  CLST         511          1.0000000000
      1534       512  TIP3  OH2          -3.9223914513       -8.7095835085       -8.8154555011  CLST         512          1.0000000000
      1535       512  TIP3  H1           -3.2314006525       -9.3076610603       -9.1955404311  CLST         512          1.0000000000
      1536       512  TIP3  H2           -3.6224442290       -7.8605466985       -9.2010517543  CLST         512          1.0000000000
      1537       513  TIP3  OH2           9.3454590710       13.9640128062       11.7346427336  CLST         513          1.0000000000
      1538       513  TIP3  H1            9.4329289843       14.8873849450       11.4689991793  CLST         513          1.0000000000
      1539       513  TIP3  H2            9.1371366569       13.5326830897       10.8692598580  CLST         513          1.0000000000
      1540       514  TIP3  OH2          -4.7271829693        7.0469287236      -12.3912740770  CLST         514          1.0000000000
      1541       514  TIP3  H1           -4.9245857653        7.0113575385      -13.3345727461  CLST         514          1.0000000000
      1542       514  TIP3  H2           -5.5154653854        7.5374579904      -12.0591520242  CLST         514          1.0000000000
      1543       515  TIP3  OH2           7.0335232303        5.6428380912       -6.1140416924  CLST         515          1.0000000000
      1544       515  TIP3  H1            7.5161970637        5.0772412434       -5.4738398005  CLST         515          1.0000000000
      1545       515  TIP3  H2            7.2685221281        6.5266188385       -5.7589343290  CLST         515          1.0000000000
      1546       516  TIP3  OH2           9.6057838868       -0.1894955112       -7.5136370954  CLST         516          1.0000000000
      1547       516  TIP3  H1           10.5342375620        0.0002302919       -7.7692807729  CLST         516          1.0000000000
      1548       516  TIP3  H2            9.2965880368        0.7315831756       -7.3675292027  CLST         516          1.0000000000
      1549       517  TIP3  OH2          13.7554712897       -7.0762112704       -9.1236246159  CLST         517          1.0000000000
      1550       517  TIP3  H1           13.8701563079       -6.2055153084       -8.6965530573  CLST         517          1.0000000000
      1551       517  TIP3  H2           14.4808636678       -7.5737910503       -8.7268653845  CLST         517          1.0000000000
      1552       518  TIP3  OH2           0.0105027262       12.3358994790       -5.9172513781  CLST         518          1.0000000000
      1553       518  TIP3  H1            0.8990532271       11.9877591777       -5.7028784727  CLST         518          1.0000000000
      1554       518  TIP3  H2           -0.1177839268       13.0276404695       -5.2353536972  CLST         518          1.0000000000
      1555       519  TIP3  OH2           0.7090058870        4.6678451403        1.3931802861  CLST         519          1.0000000000
      1556       519  TIP3  H1            0.6903186988        3.9761823970        0.6999885413  CLST         519          1.0000000000
      1557       519  TIP3  H2           -0.2339487160        4.9229590472        1.4542041422  CLST         519          1.0000000000
      1558       520  TIP3  OH2           6.9931058996        6.4720676919      -10.2748495186  CLST         520          1.0000000000
      1559       520  TIP3  H1            6.0421641092        6.6463662434      -10.1504844734  CLST         520          1.0000000000
      1560       520  TIP3  H2            7.3373065248        7.3818996649      -10.1721162543  CLST         520          1.0000000000
      1561       521  TIP3  OH2          -5.4933278165       10.0884185273        9.1162423307  CLST         521          1.0000000000
      1562       521  TIP3  H1           -4.6682262127       10.5014431542        9.4668080734  CLST         521          1.0000000000
      1563       521  TIP3  H2           -5.1676046064        9.9001864084        8.2136760790  CLST         521          1.0000000000
      1564       522  TIP3  OH2           3.0527951133        3.5513365155        2.4319761358  CLST         522          1.0000000000
      1565       522  TIP3  H1            2.1628551563        3.8759103909        2.1751733051  CLST         522          1.0000000000
      1566       522  TIP3  H2            3.3074855022        3.0805137797        1.6103763702  CLST         522          1.0000000000
      1567       523  TIP3  OH2           8.4669527975        0.9098465535       -3.1524152776  CLST         523          1.0000000000
      1568       523  TIP3  H1            7.5173122148        1.0368502843       -2.9676919761  CLST         523          1.0000000000
      1569       523  TIP3  H2            8.4342457708        0.0742110864       -3.6546810208  CLST         523          1.0000000000
      1570       524  TIP3  OH2          -5.2089881843        5.1356982173      -10.4048518528  CLST         524          1.0000000000
      1571       524  TIP3  H1           -4.8226500936        5.7648325069      -11.0483912256  CLST         524          1.0000000000
      1572       524  TIP3  H2           -4.6575170642        4.3365501043      -10.5387316038  CLST         524          1.0000000000
      1573       525  TIP3  OH2          -5.8888993628        5.7116731568       -7.7854835511  CLST         525          1.0000000000
      1574       525  TIP3  H1           -5.4423677230        6.5838722784       -7.8538697917  CLST         525          1.0000000000
      1575       525  TIP3  H2           -5.6704527483        5.3615045442       -8.6779017816  CLST         525          1.0000000000
      1576       526  TIP3  OH2          10.0879950218      -11.2260438779      -11.7980963397  CLST         526          1.0000000000
      1577       526  TIP3  H1           10.4818744840      -10.4235491393      -12.1821711609  CLST         526          1.0000000000
      1578       526  TIP3  H2           10.8439059164      -11.5878223872      -11.2955716445  CLST         526          1.0000000000
      1579       527  TIP3  OH2         -11.4192509113       -3.1374354466       -1.8795658496  CLST         527          1.0000000000
      1580       527  TIP3  H1          -12.0323271902       -3.8398039552       -2.1777743714  CLST         527          1.0000000000
      1581       527  TIP3  H2          -10.5509794377       -3.5183522210       -2.1263436824  CLST         527          1.0000000000
      1582       528  TIP3  OH2           4.3787274620      -11.6206891855      -11.3594698262  CLST         528          1.0000000000
      1583       528  TIP3  H1            4.0686303424      -10.7096796694      -11.1824990157  CLST         528          1.0000000000
      1584       528  TIP3  H2            5.1789574990      -11.4213891083      -11.8932657054  CLST         528          1.0000000000
      1585       529  TIP3  OH2          -5.1854456874       -6.3399135773       -4.5945097087  CLST         529          1.0000000000
      1586       529  TIP3  H1           -4.7149218090       -7.1366797240       -4.9083410080  CLST         529          1.0000000000
      1587       529  TIP3  H2           -5.2476761394       -5.8269533952       -5.4248774434  CLST         529          1.0000000000
      1588       530  TIP3  OH2           2.8812097970       -6.1062993379        6.9644857567  CLST         530          1.0000000000
      1589       530  TIP3  H1            2.4737839436       -6.3816612820        7.8111558328  CLST         530          1.0000000000
      1590       530  TIP3  H2            2.0729760214       -6.0416852183        6.4084479050  CLST         530          1.0000000000
      1591       531  TIP3  OH2          -2.9952848630       -3.0931497933       14.5308336592  CLST         531          1.0000000000
      1592       531  TIP3  H1           -3.8095620621       -2.5880860815       14.7620545561  CLST         531          1.0000000000
      1593       531  TIP3  H2           -2.3046655480       -2.5481585132       14.9500000000  CLST         531          1.0000000000
      1594       532  TIP3  OH2          -0.8841757810       -3.0285312246       -2.1786040485  CLST         532          1.0000000000
      1595       532  TIP3  H1           -1.6004382636       -2.3635395647       -2.2057698792  CLST         532          1.0000000000
      1596       532  TIP3  H2           -1.3485900777       -3.7276978817       -1.6712222098  CLST         532          1.0000000000
      1597       533  TIP3  OH2          -3.2689552346       14.1412840635        6.9937504523  CLST         533          1.0000000000
      1598       533  TIP3  H1           -3.8213796028       14.9500000000        6.8822970905  CLST         533          1.0000000000
      1599       533  TIP3  H2           -3.9594248074       13.5227929616        7.2983464409  CLST         533          1.0000000000
      1600       534  TIP3  OH2           6.5169022892       -4.3124167244       -5.0367425524  CLST         534          1.0000000000
      1601       534  TIP3  H1            5.6541413758       -4.3427432080       -4.5716126482  CLST         534          1.0000000000
      1602       534  TIP3  H2            6.2193873067       -4.1194436631       -5.9493873530  CLST         534          1.0000000000
      1603       535  TIP3  OH2           7.0414464295       -4.3198339688      -10.9630377675  CLST         535          1.0000000000
      1604       535  TIP3  H1            6.5786809619       -3.5353072590      -10.5923869972  CLST         535          1.0000000000
      1605       535  TIP3  H2            7.5425706348       -4.6506580723      -10.1783473376  CLST         535          1.0000000000
      1606       536  TIP3  OH2          14.3088317818        7.8705871439       11.1627656084  CLST         536          1.0000000000
      1607       536  TIP3  H1           14.0673080929        8.7794442275       11.4235128899  CLST         536          1.0000000000
      1608       536  TIP3  H2           14.7307255174        8.0404493990       10.2986334340  CLST         536          1.0000000000
      1609       537  TIP3  OH2           4.1162716065       -4.6594134952       -3.6392627172  CLST         537          1.0000000000
      1610       537  TIP3  H1            3.2498277956       -4.2174402962       -3.5395916397  CLST         537          1.0000000000
      1611       537  TIP3  H2            3.8507579222       -5.6012756534       -3.5367198926  CLST         537          1.0000000000
      1612       538  TIP3  OH2          -0.2112883476        7.3192672571       13.2058202316  CLST         538          1.0000000000
      1613       538  TIP3  H1           -0.0921726279        7.2838010498       12.2370606270  CLST         538          1.0000000000
      1614       538  TIP3  H2           -0.5832967059        8.2178573943       13.3429514066  CLST         538          1.0000000000
      1615       539  TIP3  OH2           6.2021861535        8.4947493399        1.1319849660  CLST         539          1.0000000000
      1616       539  TIP3  H1            7.0043267351        8.0639620488        0.7557091115  CLST         539          1.0000000000
      1617       539  TIP3  H2            5.6854667235        7.6782851954        1.3115817111  CLST         539          1.0000000000
      1618       540  TIP3  OH2          11.3679021379       -1.3601819300       -4.0300850638  CLST         540          1.0000000000
      1619       540  TIP3  H1           11.8500647932       -0.5658345279       -4.3467030875  CLST         540          1.0000000000
      1620       540  TIP3  H2           11.5549679284       -1.3251290212       -3.0710116817  CLST         540          1.0000000000
      1621       541  TIP3  OH2          10.6143547731        7.1740286510        8.2515294237  CLST         541          1.0000000000
      1622       541  TIP3  H1           10.7937954124        7.2579399908        9.2188818852  CLST         541          1.0000000000
      1623       541  TIP3  H2           10.8323706578        6.2307623359        8.1137325342  CLST         541          1.0000000000
      1624       542  TIP3  OH2          12.8364991232        0.7620879606       -4.9374192715  CLST         542          1.0000000000
      1625       542  TIP3  H1           12.3752377114        1.5044762434       -5.3834883620  CLST         542          1.0000000000
      1626       542  TIP3  H2           13.4450633722        0.4739395266       -5.6538087939  CLST         542          1.0000000000
      1627       543  TIP3  OH2          10.1051937543       -5.4206571531        5.4839848394  CLST         543          1.0000000000
      1628       543  TIP3  H1           10.2539249471       -6.0569824275        4.7611650779  CLST         543          1.0000000000
      1629       543  TIP3  H2            9.4984181997       -4.8086140362        5.0108869869  CLST         543          1.0000000000
      1630       544  TIP3  OH2           6.9027543136        4.3091297810      -12.1566795439  CLST         544          1.0000000000
      1631       544  TIP3  H1            7.5019637342        3.5898334732      -11.8405372783  CLST         544          1.0000000000
      1632       544  TIP3  H2            6.9295009244        4.9344891258      -11.4054556781  CLST         544          1.0000000000
      1633       545  TIP3  OH2         -11.8106469090        2.5969722263        7.1993992402  CLST         545          1.0000000000
      1634       545  TIP3  H1          -12.6246001659        3.0479297876        6.8897932913  CLST         545          1.0000000000
      1635       545  TIP3  H2          -11.7509819579        2.9529467344        8.1141805578  CLST         545          1.0000000000
      1636       546  TIP3  OH2          -0.5070868265       11.7650417850       10.4555219451  CLST         546          1.0000000000
      1637       546  TIP3  H1            0.0743892151       12.4040502275        9.9975798307  CLST         546          1.0000000000
      1638       546  TIP3  H2           -0.1848868264       11.8645716082       11.3768204542  CLST         546          1.0000000000
      1639       547  TIP3  OH2          -1.7562659180        7.3087580564        5.9049942450  CLST         547          1.0000000000
      1640       547  TIP3  H1           -1.9322570295        6.7835496595        6.7108472171  CLST         547          1.0000000000
      1641       547  TIP3  H2           -1.3518028189        6.6169514462        5.3428230470  CLST         547          1.0000000000
      1642       548  TIP3  OH2           2.6842873651       -8.0286661970       12.4824848075  CLST         548          1.0000000000
      1643       548  TIP3  H1            2.1688170684       -7.1988783914       12.5983953555  CLST         548          1.0000000000
      1644       548  TIP3  H2            3.5727245681       -7.6210879656       12.3608649605  CLST         548          1.0000000000
      1645       549  TIP3  OH2          -6.2796548727       14.2440854221        3.9209897084  CLST         549          1.0000000000
      1646       549  TIP3  H1           -6.5568349514       14.9500000000        4.5333735115  CLST         549          1.0000000000
      1647       549  TIP3  H2           -6.8629231711       13.5158885827        4.2235063599  CLST         549          1.0000000000
      1648       550  TIP3  OH2          -8.3999761164        5.2507425863       -3.8370294653  CLST         550          1.0000000000
      1649       550  TIP3  H1           -8.7398353512        4.3308367032       -3.9043061496  CLST         550          1.0000000000
      1650       550  TIP3  H2           -8.5764623844        5.4317093420       -2.8967735626  CLST         550          1.0000000000
      1651       551  TIP3  OH2          -2.3061212892      -13.9539389362       -2.5979044778  CLST         551          1.0000000000
      1652       551  TIP3  H1           -1.7085725684      -13.3873604804       -2.0610900471  CLST         551          1.0000000000
      1653       551  TIP3  H2           -3.1045294907      -13.9311158328       -2.0308403298  CLST         551          1.0000000000
      1654       552  TIP3  OH2          -2.5346443790       -7.7022045069       13.7595202730  CLST         552          1.0000000000
      1655       552  TIP3  H1           -2.7936794384       -8.5397701093       14.2003791581  CLST         552          1.0000000000
      1656       552  TIP3  H2           -1.7495621563       -7.9890213021       13.2466913678  CLST         552          1.0000000000
      1657       553  TIP3  OH2           8.3241398261      -13.4267111052       -0.1732306829  CLST         553          1.0000000000
      1658       553  TIP3  H1            8.5612740970      -12.5342844930        0.1611336498  CLST         553          1.0000000000
      1659       553  TIP3  H2            8.5720560759      -13.9617344740        0.6045668741  CLST         553          1.0000000000
      1660       554  TIP3  OH2          -8.9782360450      -11.7483253947       -3.4947373848  CLST         554          1.0000000000
      1661       554  TIP3  H1           -9.0559211071      -11.2772738936       -2.6422103583  CLST         554          1.0000000000
      1662       554  TIP3  H2           -9.8400731336      -12.2284322073       -3.4995929656  CLST         554          1.0000000000
      1663       555  TIP3  OH2         -10.4787794288       -5.3133033071       -7.0648809767  CLST         555          1.0000000000
      1664       555  TIP3  H1          -10.8160845673       -4.4086903347       -7.2198466343  CLST         555          1.0000000000
      1665       555  TIP3  H2          -10.4069224474       -5.3228591609       -6.0814969912  CLST         555          1.0000000000
      1666       556  TIP3  OH2         -10.3780253572       10.1249545968       12.2826203104  CLST         556          1.0000000000
      1667       556  TIP3  H1          -10.9330177379        9.6921522543       12.9617486407  CLST         556          1.0000000000
      1668       556  TIP3  H2           -9.5488902271        9.6190705564       12.3958893991  CLST         556          1.0000000000
      1669       557  TIP3  OH2          -2.2200288096       -6.8967874968        1.0245487503  CLST         557          1.0000000000
      1670       557  TIP3  H1           -2.0668687759       -7.0530068401        1.9741056252  CLST         557          1.0000000000
      1671       557  TIP3  H2           -2.1933511162       -7.8193198227        0.7029666877  CLST         557          1.0000000000
      1672       558  TIP3  OH2         -11.1990008344        5.4002039036        2.5236479733  CLST         558          1.0000000000
      1673       558  TIP3  H1          -10.7448047881        4.5625755418        2.7524538898  CLST         558          1.0000000000
      1674       558  TIP3  H2          -10.4952957125        5.7983724595        1.9784356931  CLST         558          1.0000000000
      1675       559  TIP3  OH2           1.0651742365        2.6185026255       -0.4772117813  CLST         559          1.0000000000
      1676       559  TIP3  H1            1.6652290666        3.0218961251       -1.1354414106  CLST         559          1.0000000000
      1677       559  TIP3  H2            1.2568768505        1.6760646765       -0.6718795958  CLST         559          1.0000000000
      1678       560  TIP3  OH2          12.3746750406      -11.1592213555       -0.2384636556  CLST         560          1.0000000000
      1679       560  TIP3  H1           11.7210208682      -11.1283726429       -0.9582555026  CLST         560          1.0000000000
      1680       560  TIP3  H2           12.1762676302      -12.0195854761        0.1814213260  CLST         560          1.0000000000
      1681       561  TIP3  OH2         -12.9012343515        8.3270769574      -10.3636908277  CLST         561          1.0000000000
      1682       561  TIP3  H1          -12.4951968588        8.5686141709      -11.2183265173  CLST         561          1.0000000000
      1683       561  TIP3  H2          -12.0863423430        8.1956910003       -9.8284146814  CLST         561          1.0000000000
      1684       562  TIP3  OH2           9.3780625863        6.1916037649       13.1355604552  CLST         562          1.0000000000
      1685       562  TIP3  H1            9.2811644484        6.4625028201       14.0585793727  CLST         562          1.0000000000
      1686       562  TIP3  H2            9.6546437778        5.2570287782       13.2669992740  CLST         562          1.0000000000
      1687       563  TIP3  OH2           3.7993035425       -9.6920608071       -6.7188405134  CLST         563          1.0000000000
      1688       563  TIP3  H1            4.3857214424       -9.6546546306       -5.9311858573  CLST         563          1.0000000000
      1689       563  TIP3  H2            4.0947960257      -10.5536457809       -7.0828817475  CLST         563          1.0000000000
      1690       564  TIP3  OH2           5.8237865925      -12.6628624188       -3.3286780459  CLST         564          1.0000000000
      1691       564  TIP3  H1            5.7204423581      -13.1316134456       -4.1863763840  CLST         564          1.0000000000
      1692       564  TIP3  H2            5.0240565710      -12.1009998334       -3.3037535447  CLST         564          1.0000000000
      1693       565  TIP3  OH2           1.3789407115       11.2960968207        0.5153428950  CLST         565          1.0000000000
      1694       565  TIP3  H1            0.8252915839       10.4818796622        0.4130674280  CLST         565          1.0000000000
      1695       565  TIP3  H2            2.2506178492       10.8869769577        0.7092356407  CLST         565          1.0000000000
      1696       566  TIP3  OH2          -8.6599046630        5.4898086620        1.2881519802  CLST         566          1.0000000000
      1697       566  TIP3  H1           -8.5425144833        4.5818638584        0.9415382381  CLST         566          1.0000000000
      1698       566  TIP3  H2           -8.6073479389        5.9878916197        0.4518231202  CLST         566          1.0000000000
      1699       567  TIP3  OH2          12.0994684186        0.4383652027       -8.3983878213  CLST         567          1.0000000000
      1700       567  TIP3  H1           12.9156862557        0.4115107398       -7.8559565153  CLST         567          1.0000000000
      1701       567  TIP3  H2           12.3342374268       -0.2144130691       -9.0953031116  CLST         567          1.0000000000
      1702       568  TIP3  OH2           8.2156620257       -7.0015875554       11.5424938208  CLST         568          1.0000000000
      1703       568  TIP3  H1            9.1070902661       -6.6003763099       11.5936164168  CLST         568          1.0000000000
      1704       568  TIP3  H2            7.7547584902       -6.2522969524       11.1073822490  CLST         568          1.0000000000
      1705       569  TIP3  OH2          -8.6221593093       -6.3195933828        3.9773891575  CLST         569          1.0000000000
      1706       569  TIP3  H1           -8.6772572354       -5.6800629822        3.2317918422  CLST         569          1.0000000000
      1707       569  TIP3  H2           -9.4103358911       -6.8633254092        3.7696919418  CLST         569          1.0000000000
      1708       570  TIP3  OH2           6.2313617736       11.6905915766       14.9500000000  CLST         570          1.0000000000
      1709       570  TIP3  H1            5.2736609152       11.6526362889       14.7419833100  CLST         570          1.0000000000
      1710       570  TIP3  H2            6.6145252179       11.9504838109       14.0857983652  CLST         570          1.0000000000
      1711       571  TIP3  OH2           9.1140560078        0.9383642108        4.4903039006  CLST         571          1.0000000000
      1712       571  TIP3  H1            8.2436846124        0.8214363195        4.8926076582  CLST         571          1.0000000000
      1713       571  TIP3  H2            9.0143403104        0.4692088236        3.6359838498  CLST         571          1.0000000000
      1714       572  TIP3  OH2           5.5910338427        0.4396560361        2.2064084096  CLST         572          1.0000000000
      1715       572  TIP3  H1            4.7250464028        0.0463004527        1.9700642047  CLST         572          1.0000000000
      1716       572  TIP3  H2            5.9807681282       -0.3170253592        2.6951066164  CLST         572          1.0000000000
      1717       573  TIP3  OH2          -2.3840517627       -6.6640420106       -6.8564860277  CLST         573          1.0000000000
      1718       573  TIP3  H1           -1.7178030014       -7.3855538441       -6.8962100581  CLST         573          1.0000000000
      1719       573  TIP3  H2           -3.1591602183       -7.1890975094       -6.5743227931  CLST         573          1.0000000000
      1720       574  TIP3  OH2          -9.6882394895        0.1921971542        8.9465666006  CLST         574          1.0000000000
      1721       574  TIP3  H1           -9.2500640658        1.0515636699        9.1242296567  CLST         574          1.0000000000
      1722       574  TIP3  H2           -9.0174221840       -0.2963882393        8.4282312374  CLST         574          1.0000000000
      1723       575  TIP3  OH2          -3.3044982737       10.7300117515        0.8128215608  CLST         575          1.0000000000
      1724       575  TIP3  H1           -3.3163696843       11.2466713292       -0.0130339718  CLST         575          1.0000000000
      1725       575  TIP3  H2           -4.2007960226       10.9445665248        1.1518071035  CLST         575          1.0000000000
      1726       576  TIP3  OH2          -3.7757691675       -2.4955970063        5.6444068812  CLST         576          1.0000000000
      1727       576  TIP3  H1           -4.3198500890       -1.6894761308        5.7465204570  CLST         576          1.0000000000
      1728       576  TIP3  H2           -2.9070505442       -2.1080991991        5.4010328164  CLST         576          1.0000000000
      1729       577  TIP3  OH2         -11.1089896336       10.8213411511        7.0777662684  CLST         577          1.0000000000
      1730       577  TIP3  H1          -10.4697661511       11.5361973122        7.2830662455  CLST         577          1.0000000000
      1731       577  TIP3  H2          -11.0171741151       10.7900653663        6.1007722067  CLST         577          1.0000000000
      1732       578  TIP3  OH2          -1.5157295351        1.2064350623        5.4489074192  CLST         578          1.0000000000
      1733       578  TIP3  H1           -2.3762926358        1.3061792060        4.9873225652  CLST         578          1.0000000000
      1734       578  TIP3  H2           -1.7516992817        1.4585357890        6.3635576347  CLST         578          1.0000000000
      1735       579  TIP3  OH2          -5.8769380928       11.1855850676        1.6084564656  CLST         579          1.0000000000
      1736       579  TIP3  H1           -6.1393752300       12.0909065414        1.3379286212  CLST         579          1.0000000000
      1737       579  TIP3  H2           -6.5955857141       10.6328587350        1.2425372736  CLST         579          1.0000000000
      1738       580  TIP3  OH2          11.1315827075        3.4473738502       -3.3784811319  CLST         580          1.0000000000
      1739       580  TIP3  H1           11.0477576415        2.5905816836       -2.9071034108  CLST         580          1.0000000000
      1740       580  TIP3  H2           11.6221874888        3.9389620998       -2.6921085735  CLST         580          1.0000000000
      1741       581  TIP3  OH2          12.7182380576      -12.0406337314        3.3096025069  CLST         581          1.0000000000
      1742       581  TIP3  H1           12.4902004231      -12.5512903695        2.5112010418  CLST         581          1.0000000000
      1743       581  TIP3  H2           13.6534751745      -12.2725568818        3.4497212262  CLST         581          1.0000000000
      1744       582  TIP3  OH2           6.7007334505       10.5201708028       -7.2191058362  CLST         582          1.0000000000
      1745       582  TIP3  H1            6.0789911837        9.8682956410       -6.8417983373  CLST         582          1.0000000000
      1746       582  TIP3  H2            6.9923101736       10.9466960968       -6.3836380653  CLST         582          1.0000000000
      1747       583  TIP3  OH2          -1.8710465319        4.7220719803      -11.0124856865  CLST         583          1.0000000000
      1748       583  TIP3  H1           -2.5710657053        4.0486513810      -10.8827210096  CLST         583          1.0000000000
      1749       583  TIP3  H2           -1.2561122531        4.1745278428      -11.5520397592  CLST         583          1.0000000000
      1750       584  TIP3  OH2           2.4301752258       -4.3103063954       -9.4728772427  CLST         584          1.0000000000
      1751       584  TIP3  H1            3.2748000257       -4.7302664735       -9.7467484233  CLST         584          1.0000000000
      1752       584  TIP3  H2            2.7043207451       -3.8334844586       -8.6628186584  CLST         584          1.0000000000
      1753       585  TIP3  OH2         -13.6552996946        0.9214724484       -2.2920200466  CLST         585          1.0000000000
      1754       585  TIP3  H1          -13.6384010807        1.7866689133       -2.7584932634  CLST         585          1.0000000000
      1755       585  TIP3  H2          -14.6103632930        0.7280659800       -2.3187337928  CLST         585          1.0000000000
      1756       586  TIP3  OH2          -6.8173433168        8.1582238354       10.5491109195  CLST         586          1.0000000000
      1757       586  TIP3  H1           -6.3844666650        8.7653190746        9.9108687814  CLST         586          1.0000000000
      1758       586  TIP3  H2           -7.0158746236        7.3920623983        9.9714666586  CLST         586          1.0000000000
      1759       587  TIP3  OH2           5.0663695098        3.8766616706       -9.4683287071  CLST         587          1.0000000000
      1760       587  TIP3  H1            4.3530648133        4.3047833162       -9.9831774547  CLST         587          1.0000000000
      1761       587  TIP3  H2            5.2136558381        3.0692333852      -10.0030048439  CLST         587          1.0000000000
      1762       588  TIP3  OH2           3.6744257846       -9.7070864613      -13.8240627550  CLST         588          1.0000000000
      1763       588  TIP3  H1            3.8439845579       -9.1877542529      -13.0179826531  CLST         588          1.0000000000
      1764       588  TIP3  H2            2.7573925991       -9.9884061364      -13.6405369014  CLST         588          1.0000000000
      1765       589  TIP3  OH2           0.4510229082      -14.0520303559        3.4189519994  CLST         589          1.0000000000
      1766       589  TIP3  H1           -0.1431128096      -14.7136632462        3.0031014041  CLST         589          1.0000000000
      1767       589  TIP3  H2           -0.1583847637      -13.6785370119        4.0934764477  CLST         589          1.0000000000
      1768       590  TIP3  OH2           2.1843912806        1.9086248347       -7.7102341210  CLST         590          1.0000000000
      1769       590  TIP3  H1            1.3992777434        2.4241505400       -7.4524423172  CLST         590          1.0000000000
      1770       590  TIP3  H2            2.1417453410        1.9695645560       -8.6909502383  CLST         590          1.0000000000
      1771       591  TIP3  OH2         -13.0368759868        0.8014570978       -6.5507217813  CLST         591          1.0000000000
      1772       591  TIP3  H1          -12.1162120218        1.0555493290       -6.2949364750  CLST         591          1.0000000000
      1773       591  TIP3  H2          -13.4052131098        1.7018996254       -6.6527578828  CLST         591          1.0000000000
      1774       592  TIP3  OH2          -3.9727260658       -3.2363826596       -6.1157489525  CLST         592          1.0000000000
      1775       592  TIP3  H1           -3.7319681964       -2.6564681751       -6.8603792384  CLST         592          1.0000000000
      1776       592  TIP3  H2           -4.5164476470       -3.9262072177       -6.5588531962  CLST         592          1.0000000000
      1777       593  TIP3  OH2          -2.1742072904        5.0788166845       -4.6579299087  CLST         593          1.0000000000
      1778       593  TIP3  H1           -2.5750061899        5.8531846683       -4.2241754596  CLST         593          1.0000000000
      1779       593  TIP3  H2           -1.3734778968        5.4746543707       -5.0852891753  CLST         593          1.0000000000
      1780       594  TIP3  OH2          11.4609231395        8.8370257116       13.1635535687  CLST         594          1.0000000000
      1781       594  TIP3  H1           11.5992059985        8.6888796145       14.1167880401  CLST         594          1.0000000000
      1782       594  TIP3  H2           10.5644207472        9.2231457367       13.1360158351  CLST         594          1.0000000000
      1783       595  TIP3  OH2          -8.3339770244       13.1462892757        4.5586198966  CLST         595          1.0000000000
      1784       595  TIP3  H1           -8.9842509002       13.5910741540        3.9748430755  CLST         595          1.0000000000
      1785       595  TIP3  H2           -8.2959682736       12.2542337594        4.1546852331  CLST         595          1.0000000000
      1786       596  TIP3  OH2         -14.3153636764       -0.6324323454        8.9204066170  CLST         596          1.0000000000
      1787       596  TIP3  H1          -14.1002519293       -1.4902146907        9.3428366278  CLST         596          1.0000000000
      1788       596  TIP3  H2          -13.6247606526       -0.5894966433        8.2253374415  CLST         596          1.0000000000
      1789       597  TIP3  OH2          -2.0741898074       -4.8123228832       -4.9302912813  CLST         597          1.0000000000
      1790       597  TIP3  H1           -2.2220610539       -5.4482234470       -5.6661873598  CLST         597          1.0000000000
      1791       597  TIP3  H2           -2.7277764266       -4.1215683757       -5.1645775222  CLST         597          1.0000000000
      1792       598  TIP3  OH2          -8.1851533516       -9.2316691538       -8.8962496294  CLST         598          1.0000000000
      1793       598  TIP3  H1           -9.1091511029       -9.5168328230       -9.0724157298  CLST         598          1.0000000000
      1794       598  TIP3  H2           -8.1368191489       -8.4042021905       -9.4217095853  CLST         598          1.0000000000
      1795       599  TIP3  OH2          12.0754634438        0.1674740576      -12.6476987989  CLST         599          1.0000000000
      1796       599  TIP3  H1           12.3146913105        1.1170614166      -12.6640733377  CLST         599          1.0000000000
      1797       599  TIP3  H2           12.7209622350       -0.1999883239      -13.2936787840  CLST         599          1.0000000000
      1798       600  TIP3  OH2          13.2640242678       -9.2756291253        1.4651671277  CLST         600          1.0000000000
      1799       600  TIP3  H1           14.1388246999       -9.6973330907        1.5933277391  CLST         600          1.0000000000
      1800       600  TIP3  H2           12.9400483245       -9.8489597669        0.7320462386  CLST         600          1.0000000000
      1801       601  TIP3  OH2          -1.4767657267       13.0879080695       -8.1124802412  CLST         601          1.0000000000
      1802       601  TIP3  H1           -0.8654724913       12.9407700993       -7.3585469191  CLST         601          1.0000000000
      1803       601  TIP3  H2           -0.9327793076       13.6045278910       -8.7325494604  CLST         601          1.0000000000
      1804       602  TIP3  OH2          12.8944707999       -3.3378537012        8.5767608448  CLST         602          1.0000000000
      1805       602  TIP3  H1           12.0756678959       -2.8766697530        8.2926971826  CLST         602          1.0000000000
      1806       602  TIP3  H2           13.2451943045       -3.5653772000        7.6881429115  CLST         602          1.0000000000
      1807       603  TIP3  OH2          -8.3581133798       -9.2303616128      -12.0350832053  CLST         603          1.0000000000
      1808       603  TIP3  H1           -9.1390717335       -8.6935592502      -11.7812953179  CLST         603          1.0000000000
      1809       603  TIP3  H2           -8.5653102246      -10.0842572501      -11.6003096997  CLST         603          1.0000000000
      1810       604  TIP3  OH2          -0.2546989794       -8.0865148658       12.2429336573  CLST         604          1.0000000000
      1811       604  TIP3  H1            0.0499884789       -7.1568306774       12.2133264168  CLST         604          1.0000000000
      1812       604  TIP3  H2            0.5816057065       -8.5346544067       12.4435021355  CLST         604          1.0000000000
      1813       605  TIP3  OH2           9.7853452160        8.4045483870        4.2083212810  CLST         605          1.0000000000
      1814       605  TIP3  H1            9.1897322418        9.1112615581        3.8838642222  CLST         605          1.0000000000
      1815       605  TIP3  H2           10.2239198721        8.8215477922        4.9818003077  CLST         605          1.0000000000
      1816       606  TIP3  OH2           1.0543780748        8.6112839736       -6.2190827298  CLST         606          1.0000000000
      1817       606  TIP3  H1            1.7415438256        9.2617695094       -5.9692917713  CLST         606          1.0000000000
      1818       606  TIP3  H2            0.2928797729        9.0392174973       -5.7810735599  CLST         606          1.0000000000
      1819       607  TIP3  OH2          -4.8294083796        1.2050146692      -13.6910354467  CLST         607          1.0000000000
      1820       607  TIP3  H1           -5.4662641973        1.6522078724      -13.1041462110  CLST         607          1.0000000000
      1821       607  TIP3  H2           -5.3988248969        0.9922114374      -14.4543196228  CLST         607          1.0000000000
      1822       608  TIP3  OH2          -2.4926725759        0.4106650821      -11.2017689213  CLST         608          1.0000000000
      1823       608  TIP3  H1           -1.5625882411        0.3483479214      -10.8954095166  CLST         608          1.0000000000
      1824       608  TIP3  H2           -2.3501531187        0.4345970487      -12.1687064574  CLST         608          1.0000000000
      1825       609  TIP3  OH2           3.5451093456        7.5936766980        3.2615590763  CLST         609          1.0000000000
      1826       609  TIP3  H1            4.2233828825        8.0003161663        3.8459333778  CLST         609          1.0000000000
      1827       609  TIP3  H2            4.0927051867        6.9272045490        2.7911547562  CLST         609          1.0000000000
      1828       610  TIP3  OH2          -7.0417127895       -8.8138821977       12.0241797459  CLST         610          1.0000000000
      1829       610  TIP3  H1           -6.9018598035       -9.6500675231       11.5294600097  CLST         610          1.0000000000
      1830       610  TIP3  H2           -6.1607003314       -8.4080332872       11.9401334256  CLST         610          1.0000000000
      1831       611  TIP3  OH2          13.5008897165       -3.8349764513        5.9200307745  CLST         611          1.0000000000
      1832       611  TIP3  H1           14.1295598087       -4.5622422010        5.7332064821  CLST         611          1.0000000000
      1833       611  TIP3  H2           13.9409784997       -3.0504200193        5.5288796737  CLST         611          1.0000000000
      1834       612  TIP3  OH2          -8.7154042140      -10.3697238367        5.6886489877  CLST         612          1.0000000000
      1835       612  TIP3  H1           -7.8635793150       -9.9111723928        5.5242910546  CLST         612          1.0000000000
      1836       612  TIP3  H2           -9.3540147220       -9.6358939398        5.5092871130  CLST         612          1.0000000000
      1837       613  TIP3  OH2           3.2508156060       -2.4483672404       13.7200195105  CLST         613          1.0000000000
      1838       613  TIP3  H1            2.5089302791       -2.9721263620       14.0846764324  CLST         613          1.0000000000
      1839       613  TIP3  H2            2.8638689015       -2.1430605169       12.8731356983  CLST         613          1.0000000000
      1840       614  TIP3  OH2           1.0677349100        4.6864878929       -8.8845918948  CLST         614          1.0000000000
      1841       614  TIP3  H1            1.5298077101        4.6271488390       -8.0242222116  CLST         614          1.0000000000
      1842       614  TIP3  H2            0.7663605181        5.6183850027       -8.8580216623  CLST         614          1.0000000000
      1843       615  TIP3  OH2           0.8316819109        4.5511149345        6.9909131287  CLST         615          1.0000000000
      1844       615  TIP3  H1            1.4584972579        5.0077040626        7.5878556677  CLST         615          1.0000000000
      1845       615  TIP3  H2            1.4104598497        4.4868431330        6.1979152942  CLST         615          1.0000000000
      1846       616  TIP3  OH2          -8.3746987080        4.8184032924       -7.1985935121  CLST         616          1.0000000000
      1847       616  TIP3  H1           -8.7611821138        4.9971534718       -8.0848221203  CLST         616          1.0000000000
      1848       616  TIP3  H2           -7.4523701697        5.1071691129       -7.3612883776  CLST         616          1.0000000000
      1849       617  TIP3  OH2          14.4346501904        1.7007789088       11.8266915565  CLST         617          1.0000000000
      1850       617  TIP3  H1           14.4773948462        0.9162881281       12.4204386469  CLST         617          1.0000000000
      1851       617  TIP3  H2           13.6992700164        2.2113549345       12.2373726893  CLST         617          1.0000000000
      1852       618  TIP3  OH2          -7.1681975644        3.1873603260        2.9182164420  CLST         618          1.0000000000
      1853       618  TIP3  H1           -6.6600538524        3.8720528807        2.4384486664  CLST         618          1.0000000000
      1854       618  TIP3  H2           -6.7281713691        3.2443975902        3.7942290318  CLST         618          1.0000000000
      1855       619  TIP3  OH2           0.9727072585        5.3316031511       -2.2210546535  CLST         619          1.0000000000
      1856       619  TIP3  H1            0.3165917668        4.6047063837       -2.3033143034  CLST         619          1.0000000000
      1857       619  TIP3  H2            0.4183517380        6.0987111952       -2.4693437527  CLST         619          1.0000000000
      1858       620  TIP3  OH2          -3.0491655802        8.4009141258       -5.6070507594  CLST         620          1.0000000000
      1859       620  TIP3  H1           -3.4445033304        7.7097068317       -5.0431288106  CLST         620          1.0000000000
      1860       620  TIP3  H2           -2.7993223907        7.9092532724       -6.4133536864  CLST         620          1.0000000000
      1861       621  TIP3  OH2           0.6084709989        7.3779282190       -8.6681035906  CLST         621          1.0000000000
      1862       621  TIP3  H1            0.9042066961        7.8615290702       -7.8667445106  CLST         621          1.0000000000
      1863       621  TIP3  H2            0.7156846905        8.0650220187       -9.3603725662  CLST         621          1.0000000000
      1864       622  TIP3  OH2           1.9527081023        9.7715864041        3.9779212149  CLST         622          1.0000000000
      1865       622  TIP3  H1            2.3127301065        8.8706450029        3.8671537431  CLST         622          1.0000000000
      1866       622  TIP3  H2            1.3519985271        9.6263277441        4.7393886564  CLST         622          1.0000000000
      1867       623  TIP3  OH2           0.5879625269       11.9256818713        3.0354160797  CLST         623          1.0000000000
      1868       623  TIP3  H1            0.9001626788       11.9019016688        2.1029894278  CLST         623          1.0000000000
      1869       623  TIP3  H2            1.1532952754       11.2046793295        3.4006460644  CLST         623          1.0000000000
      1870       624  TIP3  OH2          -8.7906503787       -1.2195008632       -3.3641439979  CLST         624          1.0000000000
      1871       624  TIP3  H1           -8.4705995213       -0.8692575191       -4.2246548818  CLST         624          1.0000000000
      1872       624  TIP3  H2           -9.7274647916       -0.9367998140       -3.3843957056  CLST         624          1.0000000000
      1873       625  TIP3  OH2          -9.1087660994      -12.9670154156       -8.4495091701  CLST         625          1.0000000000
      1874       625  TIP3  H1           -9.1213947305      -12.3281252026       -7.7038463686  CLST         625          1.0000000000
      1875       625  TIP3  H2           -8.7430701618      -13.7547862084       -7.9918406080  CLST         625          1.0000000000
      1876       626  TIP3  OH2          12.2197000734       -4.8727937855       -3.2561542566  CLST         626          1.0000000000
      1877       626  TIP3  H1           11.9146423380       -5.7057958787       -3.6756204944  CLST         626          1.0000000000
      1878       626  TIP3  H2           12.2511548456       -4.3012437431       -4.0482951260  CLST         626          1.0000000000
      1879       627  TIP3  OH2          -0.7483288705      -10.4531722138        8.5344060341  CLST         627          1.0000000000
      1880       627  TIP3  H1            0.1043459566      -10.7057204572        8.9539839155  CLST         627          1.0000000000
      1881       627  TIP3  H2           -1.0529492656      -11.3693861285        8.3497456199  CLST         627          1.0000000000
      1882       628  TIP3  OH2           7.4648648953        9.1954560718       -9.5734309094  CLST         628          1.0000000000
      1883       628  TIP3  H1            7.5291504926        9.9528213945      -10.1826223500  CLST         628          1.0000000000
      1884       628  TIP3  H2            7.1810048789        9.6382200977       -8.7474828664  CLST         628          1.0000000000
      1885       629  TIP3  OH2          -9.8816849548       -0.0984797721      -10.2156390064  CLST         629          1.0000000000
      1886       629  TIP3  H1           -8.9275780868       -0.0291500428      -10.4284271544  CLST         629          1.0000000000
      1887       629  TIP3  H2           -9.9614748919       -1.0720042857      -10.1519953957  CLST         629          1.0000000000
      1888       630  TIP3  OH2          11.1939049999       12.0612183482       12.5716842537  CLST         630          1.0000000000
      1889       630  TIP3  H1           10.7187013386       12.8758644980       12.3113531390  CLST         630          1.0000000000
      1890       630  TIP3  H2           10.4872905201       11.4029550497       12.4562240354  CLST         630          1.0000000000
      1891       631  TIP3  OH2         -12.3096576410      -10.8799660545      -11.5141507118  CLST         631          1.0000000000
      1892       631  TIP3  H1          -12.1155324307      -11.0840321127      -12.4588248277  CLST         631          1.0000000000
      1893       631  TIP3  H2          -12.2357274129      -11.7570004691      -11.0952664544  CLST         631          1.0000000000
      1894       632  TIP3  OH2          10.8454824354        1.7721143294        9.0836749253  CLST         632          1.0000000000
      1895       632  TIP3  H1           11.6486535919        1.3054316854        9.3995742504  CLST         632          1.0000000000
      1896       632  TIP3  H2           10.6878736819        1.2631467490        8.2570475712  CLST         632          1.0000000000
      1897       633  TIP3  OH2          -4.7073559019        5.7591805095       10.0745820988  CLST         633          1.0000000000
      1898       633  TIP3  H1           -4.5937329762        4.7960347170       10.2245320170  CLST         633          1.0000000000
      1899       633  TIP3  H2           -5.6590818264        5.8014319596        9.8519164898  CLST         633          1.0000000000
      1900       634  TIP3  OH2          -2.2466482541       -7.0390100943        6.0724171376  CLST         634          1.0000000000
      1901       634  TIP3  H1           -2.4957464848       -7.9482882037        6.3479265976  CLST         634          1.0000000000
      1902       634  TIP3  H2           -1.8692295585       -6.7139173825        6.9179807924  CLST         634          1.0000000000
      1903       635  TIP3  OH2           3.1623892853        2.9781249407       -2.3026070820  CLST         635          1.0000000000
      1904       635  TIP3  H1            3.2857116714        3.6896744015       -2.9530493952  CLST         635          1.0000000000
      1905       635  TIP3  H2            3.1659474267        2.1966720520       -2.8930770089  CLST         635          1.0000000000
      1906       636  TIP3  OH2           5.5570840951       -2.2721299246       -9.9010564256  CLST         636          1.0000000000
      1907       636  TIP3  H1            4.8845149950       -2.0657035623      -10.5952955599  CLST         636          1.0000000000
      1908       636  TIP3  H2            5.6327773207       -1.3972287851       -9.4762837314  CLST         636          1.0000000000
      1909       637  TIP3  OH2           3.8130141792       11.1290622669      -10.3271392237  CLST         637          1.0000000000
      1910       637  TIP3  H1            4.4508160674       11.7786589923       -9.9687623020  CLST         637          1.0000000000
      1911       637  TIP3  H2            3.6132030876       10.6171365284       -9.5174717999  CLST         637          1.0000000000
      1912       638  TIP3  OH2           8.8479848165      -12.6589217170       -7.6348222659  CLST         638          1.0000000000
      1913       638  TIP3  H1            8.2556661198      -12.9248127997       -8.3694109605  CLST         638          1.0000000000
      1914       638  TIP3  H2            9.3604143966      -11.9385996157       -8.0648819701  CLST         638          1.0000000000
      1915       639  TIP3  OH2           7.2346191688      -13.9340468487       -9.4884277022  CLST         639          1.0000000000
      1916       639  TIP3  H1            6.2603500708      -14.0016867098       -9.4862418288  CLST         639          1.0000000000
      1917       639  TIP3  H2            7.5229876703      -14.8632977262       -9.5522941466  CLST         639          1.0000000000
      1918       640  TIP3  OH2         -10.0737287222       -2.8414621919      -10.2079875684  CLST         640          1.0000000000
      1919       640  TIP3  H1           -9.1451699187       -3.1607723612      -10.1019286089  CLST         640          1.0000000000
      1920       640  TIP3  H2          -10.4304325954       -3.0279365416       -9.3205778080  CLST         640          1.0000000000
      1921       641  TIP3  OH2         -13.2929613838       -3.4029655939      -13.9235248939  CLST         641          1.0000000000
      1922       641  TIP3  H1          -13.6807874366       -4.2630494058      -13.6822007845  CLST         641          1.0000000000
      1923       641  TIP3  H2          -12.3941033870       -3.4797887341      -13.5311833719  CLST         641          1.0000000000
      1924       642  TIP3  OH2          -2.1303011266        1.2790767077       10.8613059766  CLST         642          1.0000000000
      1925       642  TIP3  H1           -1.2536457595        1.2779015536       11.2991899412  CLST         642          1.0000000000
      1926       642  TIP3  H2           -2.6869659370        0.8529490884       11.5443148589  CLST         642          1.0000000000
      1927       643  TIP3  OH2         -13.3446199665       -2.5333192179        3.5904621940  CLST         643          1.0000000000
      1928       643  TIP3  H1          -12.8447639616       -1.7951207723        3.9919027670  CLST         643          1.0000000000
      1929       643  TIP3  H2          -14.2344358527       -2.3166631174        3.9399755208  CLST         643          1.0000000000
      1930       644  TIP3  OH2          13.1758954991       -2.8845246765        1.7965691240  CLST         644          1.0000000000
      1931       644  TIP3  H1           13.7171542710       -2.0788736461        1.9386124210  CLST         644          1.0000000000
      1932       644  TIP3  H2           13.4798953368       -3.1643921980        0.9148594755  CLST         644          1.0000000000
      1933       645  TIP3  OH2          -7.1333168273        6.0548250383        8.8094048817  CLST         645          1.0000000000
      1934       645  TIP3  H1           -7.2197429576        6.5248991395        7.9587906129  CLST         645          1.0000000000
      1935       645  TIP3  H2           -7.0299007308        5.1218173851        8.5242542759  CLST         645          1.0000000000
      1936       646  TIP3  OH2           7.3306587095      -11.2858797257       11.5787663404  CLST         646          1.0000000000
      1937       646  TIP3  H1            6.6391445552      -11.0407416381       10.9296433793  CLST         646          1.0000000000
      1938       646  TIP3  H2            7.9606783912      -11.7694222432       11.0097945822  CLST         646          1.0000000000
      1939       647  TIP3  OH2         -11.8434437015       -9.0920153270       -7.0801962856  CLST         647          1.0000000000
      1940       647  TIP3  H1          -12.4679403599       -9.3712291124       -6.3803539253  CLST         647          1.0000000000
      1941       647  TIP3  H2          -11.0610347311       -8.9033829503       -6.5161317362  CLST         647          1.0000000000
      1942       648  TIP3  OH2         -13.9299836439        3.4011921183       -6.3771424746  CLST         648          1.0000000000
      1943       648  TIP3  H1          -14.5508148160        4.1402146155       -6.2333286788  CLST         648          1.0000000000
      1944       648  TIP3  H2          -13.7365681230        3.1935011293       -5.4411271622  CLST         648          1.0000000000
      1945       649  TIP3  OH2          -1.0593466532       -3.1243381481       -8.3750949654  CLST         649          1.0000000000
      1946       649  TIP3  H1           -0.4641343953       -2.5318242518       -7.8629256168  CLST         649          1.0000000000
      1947       649  TIP3  H2           -0.6244659846       -3.9905432843       -8.2192435437  CLST         649          1.0000000000
      1948       650  TIP3  OH2          -4.5464492010       -3.4848678538      -11.7332385003  CLST         650          1.0000000000
      1949       650  TIP3  H1           -3.5839751702       -3.6342486056      -11.6179641252  CLST         650          1.0000000000
      1950       650  TIP3  H2           -4.6345507977       -2.5711538916      -11.3859864886  CLST         650          1.0000000000
      1951       651  TIP3  OH2           0.8913726149       -3.8139867054       14.4202809830  CLST         651          1.0000000000
      1952       651  TIP3  H1            0.1219294159       -4.4243468009       14.3842118703  CLST         651          1.0000000000
      1953       651  TIP3  H2            0.5065837783       -3.0919608463       14.9424104106  CLST         651          1.0000000000
      1954       652  TIP3  OH2           2.2253139474       -8.9871165355        9.9694292554  CLST         652          1.0000000000
      1955       652  TIP3  H1            2.4417939602       -8.7373667977       10.8911606190  CLST         652          1.0000000000
      1956       652  TIP3  H2            1.8286532045       -8.1392296147        9.6607125752  CLST         652          1.0000000000
      1957       653  TIP3  OH2          13.4980075623        0.6638995957       -2.3267023234  CLST         653          1.0000000000
      1958       653  TIP3  H1           12.5531713282        0.7609442751       -2.0674199407  CLST         653          1.0000000000
      1959       653  TIP3  H2           13.3909270179        0.7521785968       -3.3011064466  CLST         653          1.0000000000
      1960       654  TIP3  OH2          -6.1227997394       10.0009946961       12.5201960246  CLST         654          1.0000000000
      1961       654  TIP3  H1           -5.1838302326        9.9041070450       12.8004361525  CLST         654          1.0000000000
      1962       654  TIP3  H2           -6.1645120664        9.3132066157       11.8299453254  CLST         654          1.0000000000
      1963       655  TIP3  OH2          -4.1280113982        0.6813343303       12.6731724476  CLST         655          1.0000000000
      1964       655  TIP3  H1           -4.3016842705       -0.1055719879       12.1073271793  CLST         655          1.0000000000
      1965       655  TIP3  H2           -4.9235029067        0.6703594597       13.2366665693  CLST         655          1.0000000000
      1966       656  TIP3  OH2         -14.2552927291       -4.2105250640      -10.9354144080  CLST         656          1.0000000000
      1967       656  TIP3  H1          -14.9500000000       -3.6713884076      -11.3761315364  CLST         656          1.0000000000
      1968       656  TIP3  H2          -14.1737025197       -4.9219433289      -11.6011577067  CLST         656          1.0000000000
      1969       657  TIP3  OH2           4.4766656178       -0.8469257189        5.6352180628  CLST         657          1.0000000000
      1970       657  TIP3  H1            4.6538010323       -0.9885147530        6.5893116161  CLST         657          1.0000000000
      1971       657  TIP3  H2            3.7896122935       -0.1625011232        5.6576883037  CLST         657          1.0000000000
      1972       658  TIP3  OH2         -14.0568666721       -6.9547516504       -4.7636567798  CLST         658          1.0000000000
      1973       658  TIP3  H1          -13.7917691650       -6.1111584879       -5.1848589550  CLST         658          1.0000000000
      1974       658  TIP3  H2          -14.9500000000       -7.0687321781       -5.1497483472  CLST         658          1.0000000000
      1975       659  TIP3  OH2           8.5071507024      -12.8604015018        9.6200216415  CLST         659          1.0000000000
      1976       659  TIP3  H1            8.2445588333      -12.2809337912        8.8731309038  CLST         659          1.0000000000
      1977       659  TIP3  H2            7.8045441917      -13.5418703613        9.5663228119  CLST         659          1.0000000000
      1978       660  TIP3  OH2         -14.0532757935       -9.2313612684        5.8090383371  CLST         660          1.0000000000
      1979       660  TIP3  H1          -14.6412179202       -9.9179350435        6.1672533529  CLST         660          1.0000000000
      1980       660  TIP3  H2          -13.5983231341       -8.9488133265        6.6310638633  CLST         660          1.0000000000
      1981       661  TIP3  OH2           3.0958515017        0.9802955125       -4.2450579237  CLST         661          1.0000000000
      1982       661  TIP3  H1            2.4031235988        1.6086732777       -4.5518835667  CLST         661          1.0000000000
      1983       661  TIP3  H2            2.6061218307        0.1394159989       -4.3470899272  CLST         661          1.0000000000
      1984       662  TIP3  OH2          -8.6438862810       -4.8383657347        1.7223303150  CLST         662          1.0000000000
      1985       662  TIP3  H1           -8.7985090647       -5.5133880414        1.0309873110  CLST         662          1.0000000000
      1986       662  TIP3  H2           -9.2140237349       -4.1071397578        1.3981508314  CLST         662          1.0000000000
      1987       663  TIP3  OH2           6.0912491387       -1.7870317372        3.7087669442  CLST         663          1.0000000000
      1988       663  TIP3  H1            5.4804919496       -1.4383558396        4.4042826612  CLST         663          1.0000000000
      1989       663  TIP3  H2            5.8301330361       -2.7283237498        3.7122973230  CLST         663          1.0000000000
      1990       664  TIP3  OH2           9.3035291885      -14.0430659395        2.3670642716  CLST         664          1.0000000000
      1991       664  TIP3  H1            9.3399071209      -13.2879571909        3.0005744303  CLST         664          1.0000000000
      1992       664  TIP3  H2            9.5329189864      -14.8158906115        2.9254211938  CLST         664          1.0000000000
      1993       665  TIP3  OH2           9.4451581722       11.0252869937      -14.1034623041  CLST         665          1.0000000000
      1994       665  TIP3  H1            9.1897615363       10.6207215322      -14.9500000000  CLST         665          1.0000000000
      1995       665  TIP3  H2           10.4195200778       10.9881797482      -14.1503676179  CLST         665          1.0000000000
      1996       666  TIP3  OH2         -11.6257267514       -6.9857661199       -8.8561660636  CLST         666          1.0000000000
      1997       666  TIP3  H1          -11.1413734587       -6.4083921345       -8.2239901216  CLST         666          1.0000000000
      1998       666  TIP3  H2          -11.7820042348       -7.7685740696       -8.2860236095  CLST         666          1.0000000000
      1999       667  TIP3  OH2         -10.7075666855        5.4218642745        8.1578996488  CLST         667          1.0000000000
      2000       667  TIP3  H1          -11.0726264235        4.7484938666        8.7740909452  CLST         667          1.0000000000
      2001       667  TIP3  H2          -10.4382345513        6.1177114765        8.7991701677  CLST         667          1.0000000000
      2002       668  TIP3  OH2         -12.2763332199       -0.1922805657       -0.1743063277  CLST         668          1.0000000000
      2003       668  TIP3  H1          -12.4519883418        0.3377163644        0.6313634920  CLST         668          1.0000000000
      2004       668  TIP3  H2          -12.8744498894        0.2170901502       -0.8344063987  CLST         668          1.0000000000
      2005       669  TIP3  OH2          -3.2944916455      -11.4010982929        5.0592658387  CLST         669          1.0000000000
      2006       669  TIP3  H1           -3.6998823260      -12.1639985675        4.5959357730  CLST         669          1.0000000000
      2007       669  TIP3  H2           -3.4493086335      -10.7014720387        4.3855298958  CLST         669          1.0000000000
      2008       670  TIP3  OH2          -6.3068834635       -1.9654234317        0.7710674111  CLST         670          1.0000000000
      2009       670  TIP3  H1           -7.1832730302       -1.6577331172        1.0868626323  CLST         670          1.0000000000
      2010       670  TIP3  H2           -6.3817404831       -1.7996109830       -0.1939291235  CLST         670          1.0000000000
      2011       671  TIP3  OH2           4.0302979021       -8.8171828071      -11.1809804482  CLST         671          1.0000000000
      2012       671  TIP3  H1            3.7895782958       -8.5025132246      -10.2809319908  CLST         671          1.0000000000
      2013       671  TIP3  H2            4.9910256923       -8.6025427459      -11.2037989499  CLST         671          1.0000000000
      2014       672  TIP3  OH2          11.0624265890      -11.8471339227        9.0995873280  CLST         672          1.0000000000
      2015       672  TIP3  H1           10.3437493014      -12.3694787787        9.5059081394  CLST         672          1.0000000000
      2016       672  TIP3  H2           11.7916043789      -11.9599127179        9.7553702149  CLST         672          1.0000000000
      2017       673  TIP3  OH2           6.4598886781       -3.7395149269        7.0046037909  CLST         673          1.0000000000
      2018       673  TIP3  H1            7.0273310542       -3.0402783304        6.6207546927  CLST         673          1.0000000000
      2019       673  TIP3  H2            7.1121494805       -4.4488358430        7.1619158712  CLST         673          1.0000000000
      2020       674  TIP3  OH2          -4.8676391178       -0.8793762766        2.8099304794  CLST         674          1.0000000000
      2021       674  TIP3  H1           -3.9758228302       -1.2468061379        2.6255015639  CLST         674          1.0000000000
      2022       674  TIP3  H2           -5.3436578936       -1.1479753490        1.9943406772  CLST         674          1.0000000000
      2023       675  TIP3  OH2          -9.1605343444        2.5910781619       -3.5940856529  CLST         675          1.0000000000
      2024       675  TIP3  H1           -8.2938668141        2.1231139584       -3.5619475611  CLST         675          1.0000000000
      2025       675  TIP3  H2           -9.6006294376        2.1879291165       -2.8144675069  CLST         675          1.0000000000
      2026       676  TIP3  OH2         -13.2020874671       -0.6228327461      -13.7852271921  CLST         676          1.0000000000
      2027       676  TIP3  H1          -13.1767757721       -1.6026110617      -13.8077141828  CLST         676          1.0000000000
      2028       676  TIP3  H2          -12.9555556776       -0.4418457646      -12.8505383689  CLST         676          1.0000000000
      2029       677  TIP3  OH2           1.7353762216      -11.9659729918        2.1160944235  CLST         677          1.0000000000
      2030       677  TIP3  H1            2.1861913235      -12.2412837269        1.2950753851  CLST         677          1.0000000000
      2031       677  TIP3  H2            1.3827931603      -12.8213507573        2.4435995076  CLST         677          1.0000000000
      2032       678  TIP3  OH2          10.9426943708       -6.8345077650       -9.0450739097  CLST         678          1.0000000000
      2033       678  TIP3  H1           11.8589267490       -7.1591647697       -8.9591555410  CLST         678          1.0000000000
      2034       678  TIP3  H2           11.1213852298       -5.9295436259       -9.3780073261  CLST         678          1.0000000000
      2035       679  TIP3  OH2           6.1534265484      -10.7363496769      -13.2807726026  CLST         679          1.0000000000
      2036       679  TIP3  H1            6.6054322447      -11.1603969396      -14.0182935168  CLST         679          1.0000000000
      2037       679  TIP3  H2            5.3516029097      -10.3728962146      -13.7159302659  CLST         679          1.0000000000
      2038       680  TIP3  OH2           9.2570903884       -8.2924533432       -1.3521785928  CLST         680          1.0000000000
      2039       680  TIP3  H1            9.6935412169       -9.1598386467       -1.4246093849  CLST         680          1.0000000000
      2040       680  TIP3  H2            8.7163069009       -8.3152192149       -2.1675201825  CLST         680          1.0000000000
      2041       681  TIP3  OH2           7.4433436502        8.6490135480       10.9924180335  CLST         681          1.0000000000
      2042       681  TIP3  H1            7.1781566344        7.8242219105       11.4518810301  CLST         681          1.0000000000
      2043       681  TIP3  H2            7.7621616155        8.2539104140       10.1547787258  CLST         681          1.0000000000
      2044       682  TIP3  OH2           7.5418627542       12.8545097940        1.4569879965  CLST         682          1.0000000000
      2045       682  TIP3  H1            6.9017899789       12.3269420178        0.9330408635  CLST         682          1.0000000000
      2046       682  TIP3  H2            6.9308705310       13.5053598420        1.8654037083  CLST         682          1.0000000000
      2047       683  TIP3  OH2           3.4899121003       11.4959417351      -14.7670318483  CLST         683          1.0000000000
      2048       683  TIP3  H1            3.0351099461       11.7906179212      -13.9467983146  CLST         683          1.0000000000
      2049       683  TIP3  H2            3.2637135233       10.5429579019      -14.7120039539  CLST         683          1.0000000000
      2050       684  TIP3  OH2          12.4892545190        2.8456008177      -12.1713688044  CLST         684          1.0000000000
      2051       684  TIP3  H1           11.8773387795        2.6417702108      -11.4276118535  CLST         684          1.0000000000
      2052       684  TIP3  H2           13.2407857244        3.2162757913      -11.6734850388  CLST         684          1.0000000000
      2053       685  TIP3  OH2           4.5490234806       12.7420737215        1.9319299367  CLST         685          1.0000000000
      2054       685  TIP3  H1            4.2206863449       11.8682397891        1.6427951364  CLST         685          1.0000000000
      2055       685  TIP3  H2            4.2422497177       13.3152830322        1.2010761122  CLST         685          1.0000000000
      2056       686  TIP3  OH2          -3.0227235595      -11.9708519961       -4.4299623874  CLST         686          1.0000000000
      2057       686  TIP3  H1           -2.7178654861      -12.7298288434       -3.8935361012  CLST         686          1.0000000000
      2058       686  TIP3  H2           -3.7743946002      -12.3861423829       -4.9134036900  CLST         686          1.0000000000
      2059       687  TIP3  OH2           2.3062687104       10.8642718331       -5.1455938280  CLST         687          1.0000000000
      2060       687  TIP3  H1            2.0054637861       10.7587761789       -4.2176327118  CLST         687          1.0000000000
      2061       687  TIP3  H2            3.1283647401       11.3734518638       -4.9936236314  CLST         687          1.0000000000
      2062       688  TIP3  OH2          -4.6682293267       -1.0367079997      -10.4459068938  CLST         688          1.0000000000
      2063       688  TIP3  H1           -4.3106446630       -1.2019907398       -9.5522793175  CLST         688          1.0000000000
      2064       688  TIP3  H2           -3.9579302934       -0.4571077391      -10.8010146480  CLST         688          1.0000000000
      2065       689  TIP3  OH2         -11.2773701832       -2.7212539978       -7.7146030266  CLST         689          1.0000000000
      2066       689  TIP3  H1          -11.7201411790       -2.3804319206       -6.9040263879  CLST         689          1.0000000000
      2067       689  TIP3  H2          -11.9461581517       -2.4429747140       -8.3819984371  CLST         689          1.0000000000
      2068       690  TIP3  OH2           9.3770322998      -11.7317677231        3.8391574614  CLST         690          1.0000000000
      2069       690  TIP3  H1            9.6966980818      -11.7585417020        4.7665021534  CLST         690          1.0000000000
      2070       690  TIP3  H2            9.9624131117      -11.0514403346        3.4444023823  CLST         690          1.0000000000
      2071       691  TIP3  OH2          -0.9739156979        9.9236073054       13.7325884467  CLST         691          1.0000000000
      2072       691  TIP3  H1           -0.4587878905       10.6457360820       13.3169777696  CLST         691          1.0000000000
      2073       691  TIP3  H2           -0.7017381623       10.0715307948       14.6632921250  CLST         691          1.0000000000
      2074       692  TIP3  OH2           1.1715093396       -6.6482075379        9.0869575358  CLST         692          1.0000000000
      2075       692  TIP3  H1            0.2256623060       -6.6142636855        8.8190910456  CLST         692          1.0000000000
      2076       692  TIP3  H2            1.2364301898       -5.7633189529        9.5082888470  CLST         692          1.0000000000
      2077       693  TIP3  OH2          -8.8539592400       -3.8002029223       -2.3940026659  CLST         693          1.0000000000
      2078       693  TIP3  H1           -8.0617154969       -4.0084831623       -1.8532566241  CLST         693          1.0000000000
      2079       693  TIP3  H2           -8.6471113523       -2.8970178275       -2.7213131561  CLST         693          1.0000000000
      2080       694  TIP3  OH2          -1.6872372204       11.5546107817        6.0441079540  CLST         694          1.0000000000
      2081       694  TIP3  H1           -2.2307796679       12.0693480233        5.4130427409  CLST         694          1.0000000000
      2082       694  TIP3  H2           -0.8876403985       12.1190020178        6.0767767680  CLST         694          1.0000000000
      2083       695  TIP3  OH2           2.0477153062       10.8846915306        7.6267576697  CLST         695          1.0000000000
      2084       695  TIP3  H1            1.4624492275       10.5400514397        6.9249819446  CLST         695          1.0000000000
      2085       695  TIP3  H2            1.6740122554       10.4301349331        8.4110241619  CLST         695          1.0000000000
      2086       696  TIP3  OH2          -3.5678230584        3.5222047685       -6.3783234219  CLST         696          1.0000000000
      2087       696  TIP3  H1           -3.0933826420        3.9410051493       -7.1304146272  CLST         696          1.0000000000
      2088       696  TIP3  H2           -3.2412751485        4.1023035739       -5.6577577029  CLST         696          1.0000000000
      2089       697  TIP3  OH2           2.6812458631        5.4978553502       11.7015643566  CLST         697          1.0000000000
      2090       697  TIP3  H1            1.9512260259        5.8170360667       11.1261681519  CLST         697          1.0000000000
      2091       697  TIP3  H2            3.4394338898        5.4556041618       11.0835603527  CLST         697          1.0000000000
      2092       698  TIP3  OH2          -3.8967956935        5.7631002172       -0.9589033015  CLST         698          1.0000000000
      2093       698  TIP3  H1           -3.5910396569        5.1967856911       -0.2370270318  CLST         698          1.0000000000
      2094       698  TIP3  H2           -4.8593927052        5.5621356867       -0.9388726187  CLST         698          1.0000000000
      2095       699  TIP3  OH2          -0.9340025193       -4.9917108683        3.4858754944  CLST         699          1.0000000000
      2096       699  TIP3  H1           -1.9038951888       -4.8584371072        3.5630227236  CLST         699          1.0000000000
      2097       699  TIP3  H2           -0.7988014811       -4.6752451595        2.5656319761  CLST         699          1.0000000000
      2098       700  TIP3  OH2          -4.7585714039       -7.4831568088        8.1433752077  CLST         700          1.0000000000
      2099       700  TIP3  H1           -4.7068594801       -6.8687487051        7.3854067065  CLST         700          1.0000000000
      2100       700  TIP3  H2           -4.1725684607       -8.2087037789        7.8572282761  CLST         700          1.0000000000
      2101       701  TIP3  OH2         -13.9811779216        9.7949700521        0.3603578723  CLST         701          1.0000000000
      2102       701  TIP3  H1          -13.7133484737        9.0149478171       -0.1746215437  CLST         701          1.0000000000
      2103       701  TIP3  H2          -14.9500000000        9.6952657927        0.3956544251  CLST         701          1.0000000000
      2104       702  TIP3  OH2          -5.5968843521       -9.4230770968      -11.9461556145  CLST         702          1.0000000000
      2105       702  TIP3  H1           -5.6230926111       -9.8641076876      -11.0713664395  CLST         702          1.0000000000
      2106       702  TIP3  H2           -6.5340700082       -9.1475944242      -12.0296711663  CLST         702          1.0000000000
      2107       703  TIP3  OH2           3.1285803374        5.4000546768       -3.8543152578  CLST         703          1.0000000000
      2108       703  TIP3  H1            2.2928263615        5.2388183587       -3.3631804799  CLST         703          1.0000000000
      2109       703  TIP3  H2            3.1127992692        6.3794391205       -3.8252566805  CLST         703          1.0000000000
      2110       704  TIP3  OH2          -9.2755235283        5.0834813962       11.0073329697  CLST         704          1.0000000000
      2111       704  TIP3  H1           -9.6980269127        5.4078563545       11.8216284635  CLST         704          1.0000000000
      2112       704  TIP3  H2           -9.2530138613        5.9116951981       10.4937808684  CLST         704          1.0000000000
      2113       705  TIP3  OH2          -0.9227939878       -8.9347661520       -6.9437960501  CLST         705          1.0000000000
      2114       705  TIP3  H1           -1.2895438224       -9.8309783846       -7.1113831333  CLST         705          1.0000000000
      2115       705  TIP3  H2           -0.3814562403       -8.7941625054       -7.7504269693  CLST         705          1.0000000000
      2116       706  TIP3  OH2          -1.3421105843       -1.5037407800        5.0257293028  CLST         706          1.0000000000
      2117       706  TIP3  H1           -1.1667029060       -0.5716316070        5.2766129293  CLST         706          1.0000000000
      2118       706  TIP3  H2           -0.5903115600       -1.9742437742        5.4444409228  CLST         706          1.0000000000
      2119       707  TIP3  OH2           8.6211849172       11.0267245285        7.2926807776  CLST         707          1.0000000000
      2120       707  TIP3  H1            8.4424115118       11.4907588768        6.4464113695  CLST         707          1.0000000000
      2121       707  TIP3  H2            7.9648757498       10.3057117769        7.2312231609  CLST         707          1.0000000000
      2122       708  TIP3  OH2          -0.5609608185       -8.5639897137      -11.8396511957  CLST         708          1.0000000000
      2123       708  TIP3  H1           -1.4727875419       -8.6074296821      -12.2255731087  CLST         708          1.0000000000
      2124       708  TIP3  H2           -0.3100345515       -7.6624956976      -12.0789117671  CLST         708          1.0000000000
      2125       709  TIP3  OH2          -6.0418916802       13.9051473218        1.2971731345  CLST         709          1.0000000000
      2126       709  TIP3  H1           -5.0679477253       14.0106138389        1.1885842633  CLST         709          1.0000000000
      2127       709  TIP3  H2           -6.1713736544       14.3243201648        2.1733452110  CLST         709          1.0000000000
      2128       710  TIP3  OH2          -0.3633513381       14.5664145900      -10.3500683670  CLST         710          1.0000000000
      2129       710  TIP3  H1            0.2852540769       14.5750911972      -11.0898063557  CLST         710          1.0000000000
      2130       710  TIP3  H2           -1.0166406128       13.9150743093      -10.7114794390  CLST         710          1.0000000000
      2131       711  TIP3  OH2          12.2101699824      -11.9345716189      -10.1719048126  CLST         711          1.0000000000
      2132       711  TIP3  H1           13.0709198733      -11.7869663394      -10.5795753021  CLST         711          1.0000000000
      2133       711  TIP3  H2           12.4139145276      -12.7282774634       -9.6211403267  CLST         711          1.0000000000
      2134       712  TIP3  OH2          -4.1289462803      -10.8586347952       12.1181033109  CLST         712          1.0000000000
      2135       712  TIP3  H1           -4.9055015652      -10.7561984198       11.5292369125  CLST         712          1.0000000000
      2136       712  TIP3  H2           -3.4414503812      -10.3531687258       11.6204344013  CLST         712          1.0000000000
      2137       713  TIP3  OH2           7.3447129502        0.5930740866        6.8201079991  CLST         713          1.0000000000
      2138       713  TIP3  H1            7.3194949583        0.4149362855        7.7773971412  CLST         713          1.0000000000
      2139       713  TIP3  H2            7.5189383934       -0.3144390924        6.4845681551  CLST         713          1.0000000000
      2140       714  TIP3  OH2           5.0670661188       11.7149271532        4.4117887682  CLST         714          1.0000000000
      2141       714  TIP3  H1            4.9217636477       12.1542982543        3.5419067088  CLST         714          1.0000000000
      2142       714  TIP3  H2            4.4031325471       12.1913353024        4.9565546329  CLST         714          1.0000000000
      2143       715  TIP3  OH2          -9.5249689233       -9.3557511099        1.3708796249  CLST         715          1.0000000000
      2144       715  TIP3  H1           -9.8936810316       -8.4966336370        1.6742011708  CLST         715          1.0000000000
      2145       715  TIP3  H2          -10.0523279302       -9.9667239099        1.9280418319  CLST         715          1.0000000000
      2146       716  TIP3  OH2         -13.5591860692      -12.6754923670       -0.1068796243  CLST         716          1.0000000000
      2147       716  TIP3  H1          -14.0687698577      -13.4571118031       -0.3449482809  CLST         716          1.0000000000
      2148       716  TIP3  H2          -13.5507860981      -12.1923529096       -0.9634164524  CLST         716          1.0000000000
      2149       717  TIP3  OH2          -6.6838671978      -12.1294097201        2.6020529872  CLST         717          1.0000000000
      2150       717  TIP3  H1           -6.7681772784      -11.3225228347        2.0519381337  CLST         717          1.0000000000
      2151       717  TIP3  H2           -7.3238831966      -12.7222166363        2.1467290499  CLST         717          1.0000000000
      2152       718  TIP3  OH2         -10.5597731230        6.6861069057       12.9622637066  CLST         718          1.0000000000
      2153       718  TIP3  H1          -11.1663843459        7.3615412989       13.3290176813  CLST         718          1.0000000000
      2154       718  TIP3  H2           -9.7182579456        7.1896238527       12.9925756546  CLST         718          1.0000000000
      2155       719  TIP3  OH2          10.4576389791       -6.8580002901        3.1021667710  CLST         719          1.0000000000
      2156       719  TIP3  H1           11.2829842442       -6.3466695160        3.2675422671  CLST         719          1.0000000000
      2157       719  TIP3  H2           10.4118107473       -6.7282248881        2.1224719706  CLST         719          1.0000000000
      2158       720  TIP3  OH2          -4.1675254225       13.2981083361       -8.4996343141  CLST         720          1.0000000000
      2159       720  TIP3  H1           -3.1873488230       13.2496358981       -8.4184790216  CLST         720          1.0000000000
      2160       720  TIP3  H2           -4.3849990737       13.7320500410       -7.6467753190  CLST         720          1.0000000000
      2161       721  TIP3  OH2           4.6710483860       -5.6822035553      -10.3719171412  CLST         721          1.0000000000
      2162       721  TIP3  H1            5.1669553869       -6.3127684904       -9.8074465207  CLST         721          1.0000000000
      2163       721  TIP3  H2            5.4144600454       -5.2136150292      -10.7971168144  CLST         721          1.0000000000
      2164       722  TIP3  OH2          10.4365328874       -2.6606224383        2.0761506055  CLST         722          1.0000000000
      2165       722  TIP3  H1            9.9552559211       -3.4109101193        1.6737218926  CLST         722          1.0000000000
      2166       722  TIP3  H2           11.3746177051       -2.8493558555        1.8645232490  CLST         722          1.0000000000
      2167       723  TIP3  OH2           0.6448125241       12.9857626357        5.6301920055  CLST         723          1.0000000000
      2168       723  TIP3  H1            0.6721347733       12.7750547869        4.6766524434  CLST         723          1.0000000000
      2169       723  TIP3  H2            1.6054881766       12.9776150505        5.8352597285  CLST         723          1.0000000000
      2170       724  TIP3  OH2           7.6716017484       -8.4350452446       -3.5739433903  CLST         724          1.0000000000
      2171       724  TIP3  H1            7.9607286707       -8.7421962598       -4.4625067417  CLST         724          1.0000000000
      2172       724  TIP3  H2            7.7605540782       -7.4584055245       -3.6681324963  CLST         724          1.0000000000
      2173       725  TIP3  OH2          -0.5104925759        0.0624384456        2.3740433611  CLST         725          1.0000000000
      2174       725  TIP3  H1           -1.3286853522       -0.4746029369        2.3984881224  CLST         725          1.0000000000
      2175       725  TIP3  H2           -0.8039375477        0.8356729108        1.8508219023  CLST         725          1.0000000000
      2176       726  TIP3  OH2         -13.7738888897       10.2895453447        6.7629408325  CLST         726          1.0000000000
      2177       726  TIP3  H1          -13.8635071503       11.0816559880        6.1918708256  CLST         726          1.0000000000
      2178       726  TIP3  H2          -12.8646066658       10.4480206105        7.1011322001  CLST         726          1.0000000000
      2179       727  TIP3  OH2          -4.1750390299      -13.6503842888       -0.5130552434  CLST         727          1.0000000000
      2180       727  TIP3  H1           -3.8163263419      -14.3463971196        0.0786897945  CLST         727          1.0000000000
      2181       727  TIP3  H2           -3.8462535315      -12.8449570793       -0.0648867099  CLST         727          1.0000000000
      2182       728  TIP3  OH2          -8.2107639537        3.1569712017       -0.2130284729  CLST         728          1.0000000000
      2183       728  TIP3  H1           -7.7738562055        2.4031140536        0.2381729146  CLST         728          1.0000000000
      2184       728  TIP3  H2           -8.8981569311        2.6640800209       -0.7054110771  CLST         728          1.0000000000
      2185       729  TIP3  OH2          10.5363064004       -9.5874804815        2.3729037670  CLST         729          1.0000000000
      2186       729  TIP3  H1           10.4722203797       -8.6896733131        2.7553442139  CLST         729          1.0000000000
      2187       729  TIP3  H2           11.4715445595       -9.5851582889        2.0930031210  CLST         729          1.0000000000
      2188       730  TIP3  OH2          -4.1601602123       10.8721680308       -5.3786918715  CLST         730          1.0000000000
      2189       730  TIP3  H1           -3.8322372515        9.9532842364       -5.4323609702  CLST         730          1.0000000000
      2190       730  TIP3  H2           -4.6157807749       10.9384916441       -6.2409029105  CLST         730          1.0000000000
      2191       731  TIP3  OH2          13.1437081374       12.5733259788       -4.2520465525  CLST         731          1.0000000000
      2192       731  TIP3  H1           13.9963204485       12.7994650353       -4.6351932106  CLST         731          1.0000000000
      2193       731  TIP3  H2           12.6914081536       12.1170889348       -4.9835475064  CLST         731          1.0000000000
      2194       732  TIP3  OH2          -2.9637596478       -1.1963717272       -2.0674647848  CLST         732          1.0000000000
      2195       732  TIP3  H1           -3.5003766529       -1.1326311512       -1.2661463367  CLST         732          1.0000000000
      2196       732  TIP3  H2           -3.5989817942       -0.8849297433       -2.7495241580  CLST         732          1.0000000000
      2197       733  TIP3  OH2           5.0319953919        3.0306218183       11.9161346928  CLST         733          1.0000000000
      2198       733  TIP3  H1            4.9781708220        2.0941174117       11.6300073008  CLST         733          1.0000000000
      2199       733  TIP3  H2            4.4601736762        3.0005552892       12.7131308573  CLST         733          1.0000000000
      2200       734  TIP3  OH2           7.9566513762       -1.8108284805        5.7191338129  CLST         734          1.0000000000
      2201       734  TIP3  H1            7.4651329942       -1.8610976334        4.8734650668  CLST         734          1.0000000000
      2202       734  TIP3  H2            8.8723863353       -1.9902678822        5.4104267599  CLST         734          1.0000000000
      2203       735  TIP3  OH2         -10.8492651665      -12.5157992417        0.5452811732  CLST         735          1.0000000000
      2204       735  TIP3  H1          -11.0049067118      -11.9865333137        1.3587672377  CLST         735          1.0000000000
      2205       735  TIP3  H2          -11.7733823318      -12.6817318767        0.2651520884  CLST         735          1.0000000000
      2206       736  TIP3  OH2          13.9611796659        1.8333993112        2.7944278659  CLST         736          1.0000000000
      2207       736  TIP3  H1           13.8961468062        2.1183098675        1.8611669555  CLST         736          1.0000000000
      2208       736  TIP3  H2           14.1983957510        0.8950506024        2.6603077680  CLST         736          1.0000000000
      2209       737  TIP3  OH2          10.6709346946       -2.1199808449        7.5509385869  CLST         737          1.0000000000
      2210       737  TIP3  H1           10.6454650180       -2.4355041444        6.6228967303  CLST         737          1.0000000000
      2211       737  TIP3  H2           10.6641093619       -1.1544905286        7.3726862600  CLST         737          1.0000000000
      2212       738  TIP3  OH2          10.1850006508        1.3823403547      -14.8296116470  CLST         738          1.0000000000
      2213       738  TIP3  H1            9.5583669271        1.1701486659      -14.1152320940  CLST         738          1.0000000000
      2214       738  TIP3  H2           10.7305292804        0.5678012851      -14.8154677184  CLST         738          1.0000000000
      2215       739  TIP3  OH2         -13.1918408230        1.2500459706       10.5672710577  CLST         739          1.0000000000
      2216       739  TIP3  H1          -13.9625129085        1.4763919731       11.1275320537  CLST         739          1.0000000000
      2217       739  TIP3  H2          -13.6180976348        0.6471652980        9.9212881797  CLST         739          1.0000000000
      2218       740  TIP3  OH2           5.9264420939      -13.9802011430       -5.7613682144  CLST         740          1.0000000000
      2219       740  TIP3  H1            5.3075758918      -14.6778223243       -6.0709558299  CLST         740          1.0000000000
      2220       740  TIP3  H2            6.7817375909      -14.4250250347       -5.9274099491  CLST         740          1.0000000000
      2221       741  TIP3  OH2          10.9224013790        4.3627925008        8.0638940562  CLST         741          1.0000000000
      2222       741  TIP3  H1           11.8712313706        4.3003913654        7.8351470025  CLST         741          1.0000000000
      2223       741  TIP3  H2           10.8436707265        3.5124521427        8.5431748970  CLST         741          1.0000000000
      2224       742  TIP3  OH2           8.3412333661       -9.4718133058       -6.0673710752  CLST         742          1.0000000000
      2225       742  TIP3  H1            8.8007744513      -10.3230539175       -5.9751643151  CLST         742          1.0000000000
      2226       742  TIP3  H2            7.7994422304       -9.6375145807       -6.8725623540  CLST         742          1.0000000000
      2227       743  TIP3  OH2          -7.2582902479       -0.2602606723      -11.0772436373  CLST         743          1.0000000000
      2228       743  TIP3  H1           -7.0183849140        0.6116132961      -11.4465651615  CLST         743          1.0000000000
      2229       743  TIP3  H2           -6.3822911651       -0.5822349070      -10.7705948319  CLST         743          1.0000000000
      2230       744  TIP3  OH2          -5.7672655008        3.5460165226        5.2362467735  CLST         744          1.0000000000
      2231       744  TIP3  H1           -4.9578109675        3.3302182360        5.7457167126  CLST         744          1.0000000000
      2232       744  TIP3  H2           -5.7372536342        4.5213437755        5.3228956284  CLST         744          1.0000000000
      2233       745  TIP3  OH2           0.4284853864       -8.5419897981        6.7386716115  CLST         745          1.0000000000
      2234       745  TIP3  H1           -0.0484304340       -9.0269277467        7.4389068829  CLST         745          1.0000000000
      2235       745  TIP3  H2            1.3592083928       -8.6329470040        7.0295627563  CLST         745          1.0000000000
      2236       746  TIP3  OH2          -7.4279906193       -3.9669888249       -5.3047690455  CLST         746          1.0000000000
      2237       746  TIP3  H1           -8.2025733335       -4.5025268631       -5.0604539433  CLST         746          1.0000000000
      2238       746  TIP3  H2           -7.7843053874       -3.4664042819       -6.0655681660  CLST         746          1.0000000000
      2239       747  TIP3  OH2          11.4811214569       11.4393953323        2.4710678371  CLST         747          1.0000000000
      2240       747  TIP3  H1           11.0300017579       12.2265641518        2.8376345536  CLST         747          1.0000000000
      2241       747  TIP3  H2           11.9401764919       11.1197697083        3.2851302931  CLST         747          1.0000000000
      2242       748  TIP3  OH2           3.2695189853        5.2214101789        8.2370098745  CLST         748          1.0000000000
      2243       748  TIP3  H1            3.9782330623        5.2183345594        8.9181432790  CLST         748          1.0000000000
      2244       748  TIP3  H2            3.5188502109        6.0234626465        7.7335648388  CLST         748          1.0000000000
      2245       749  TIP3  OH2          10.7855854194        9.4049545202        6.5710662700  CLST         749          1.0000000000
      2246       749  TIP3  H1           10.8074519990        8.6402836528        7.1892757183  CLST         749          1.0000000000
      2247       749  TIP3  H2           10.1777678645       10.0159576504        7.0350044253  CLST         749          1.0000000000
      2248       750  TIP3  OH2         -14.1166654471       12.3458954233       -7.4817715701  CLST         750          1.0000000000
      2249       750  TIP3  H1          -14.9500000000       11.8396050371       -7.5611165877  CLST         750          1.0000000000
      2250       750  TIP3  H2          -13.6267234749       11.9776742140       -8.2459321235  CLST         750          1.0000000000
      2251       751  TIP3  OH2           8.6964205012        4.2660793293       -4.3950926843  CLST         751          1.0000000000
      2252       751  TIP3  H1            8.0951671420        3.4960118642       -4.4825696059  CLST         751          1.0000000000
      2253       751  TIP3  H2            9.4277444076        3.8749953558       -3.8751502284  CLST         751          1.0000000000
      2254       752  TIP3  OH2         -12.0575861064       12.6764067093        2.1452590871  CLST         752          1.0000000000
      2255       752  TIP3  H1          -12.3408787766       12.6696885201        1.2040296775  CLST         752          1.0000000000
      2256       752  TIP3  H2          -12.1555936251       11.7255140587        2.3306596308  CLST         752          1.0000000000
      2257       753  TIP3  OH2           8.8976002247        2.4165171726       -7.0668499677  CLST         753          1.0000000000
      2258       753  TIP3  H1            8.5822248202        3.1322005230       -7.6590616393  CLST         753          1.0000000000
      2259       753  TIP3  H2            8.1715348287        2.4004340546       -6.4038068981  CLST         753          1.0000000000
      2260       754  TIP3  OH2          11.4442113450        2.8431705023       -6.0484112732  CLST         754          1.0000000000
      2261       754  TIP3  H1           11.2847343712        3.1861437255       -5.1411843737  CLST         754          1.0000000000
      2262       754  TIP3  H2           10.5264815921        2.7017565051       -6.3671798975  CLST         754          1.0000000000
      2263       755  TIP3  OH2           7.1769750387       -1.7731386444        0.2369268139  CLST         755          1.0000000000
      2264       755  TIP3  H1            6.2328023531       -2.0347325219        0.2625378798  CLST         755          1.0000000000
      2265       755  TIP3  H2            7.0954294502       -0.8327602645       -0.0608444655  CLST         755          1.0000000000
      2266       756  TIP3  OH2         -12.4070799406        6.7290238957        6.4558376112  CLST         756          1.0000000000
      2267       756  TIP3  H1          -13.1673386995        6.5407812439        7.0399734754  CLST         756          1.0000000000
      2268       756  TIP3  H2          -11.7185426324        6.2604281885        6.9719865798  CLST         756          1.0000000000
      2269       757  TIP3  OH2          -4.4982767982       -4.8718842098       -2.3487651667  CLST         757          1.0000000000
      2270       757  TIP3  H1           -4.6064913214       -5.5400421868       -3.0586509813  CLST         757          1.0000000000
      2271       757  TIP3  H2           -4.7203029003       -4.0581940113       -2.8487724622  CLST         757          1.0000000000
      2272       758  TIP3  OH2          12.0125681403        4.0760009686       -0.7764023184  CLST         758          1.0000000000
      2273       758  TIP3  H1           11.9319080242        4.5265864279        0.0908372169  CLST         758          1.0000000000
      2274       758  TIP3  H2           12.6412027184        3.3685219046       -0.5309508192  CLST         758          1.0000000000
      2275       759  TIP3  OH2          -6.9332958953       11.0837137586      -11.0719315450  CLST         759          1.0000000000
      2276       759  TIP3  H1           -6.1881289711       11.7159233924      -11.1260791598  CLST         759          1.0000000000
      2277       759  TIP3  H2           -6.5584617527       10.2850349209      -11.4706616741  CLST         759          1.0000000000
      2278       760  TIP3  OH2           8.2932346487       14.0780785553       -6.6729645003  CLST         760          1.0000000000
      2279       760  TIP3  H1            8.6338401325       14.9500000000       -6.9626293133  CLST         760          1.0000000000
      2280       760  TIP3  H2            8.2562295416       13.6060762990       -7.5260989280  CLST         760          1.0000000000
      2281       761  TIP3  OH2          -7.0688363878        8.2306902296      -11.6094763930  CLST         761          1.0000000000
      2282       761  TIP3  H1           -7.9223899072        7.9422623540      -11.9830236028  CLST         761          1.0000000000
      2283       761  TIP3  H2           -7.3121292543        8.3631691769      -10.6711292676  CLST         761          1.0000000000
      2284       762  TIP3  OH2           7.9170000024       -6.3392738195      -12.6822233410  CLST         762          1.0000000000
      2285       762  TIP3  H1            7.4033168102       -7.0859576230      -12.3181129669  CLST         762          1.0000000000
      2286       762  TIP3  H2            7.5671346795       -5.5895560890      -12.1635176307  CLST         762          1.0000000000
      2287       763  TIP3  OH2          -1.4784688655       -6.1391234465        8.5685162579  CLST         763          1.0000000000
      2288       763  TIP3  H1           -1.7209174803       -5.2570906248        8.2087867391  CLST         763          1.0000000000
      2289       763  TIP3  H2           -2.0194070887       -6.1123269148        9.3919242694  CLST         763          1.0000000000
      2290       764  TIP3  OH2           8.8964658484      -10.8693356971        0.5717515577  CLST         764          1.0000000000
      2291       764  TIP3  H1            8.0604996439      -10.3532773741        0.5701407750  CLST         764          1.0000000000
      2292       764  TIP3  H2            9.4207320649      -10.3944430208        1.2564892915  CLST         764          1.0000000000
      2293       765  TIP3  OH2         -14.2937336462      -11.3249806034       12.1098580224  CLST         765          1.0000000000
      2294       765  TIP3  H1          -13.4799247767      -11.0061727265       12.5283075368  CLST         765          1.0000000000
      2295       765  TIP3  H2          -14.9500000000      -10.6846864725       12.4508902201  CLST         765          1.0000000000
      2296       766  TIP3  OH2          10.9663960893       -8.5404932074      -12.2936100520  CLST         766          1.0000000000
      2297       766  TIP3  H1           10.6586149816       -7.9325270931      -12.9954610524  CLST         766          1.0000000000
      2298       766  TIP3  H2           10.2374224365       -8.4768702986      -11.6440106141  CLST         766          1.0000000000
      2299       767  TIP3  OH2           2.0889076337       12.0511099027      -12.4842316126  CLST         767          1.0000000000
      2300       767  TIP3  H1            2.6235487118       11.8162325207      -11.6982256149  CLST         767          1.0000000000
      2301       767  TIP3  H2            1.8749340134       12.9903087108      -12.3168820027  CLST         767          1.0000000000
      2302       768  TIP3  OH2           7.9341597156        7.1321281626        8.7268574501  CLST         768          1.0000000000
      2303       768  TIP3  H1            8.8989749775        7.1832559586        8.5494397857  CLST         768          1.0000000000
      2304       768  TIP3  H2            7.8033129709        6.1636229664        8.6437252287  CLST         768          1.0000000000
      2305       769  TIP3  OH2         -11.4908036765        3.2194424402        0.4426584313  CLST         769          1.0000000000
      2306       769  TIP3  H1          -10.8606756217        3.0649761423        1.1798882604  CLST         769          1.0000000000
      2307       769  TIP3  H2          -12.3246996521        3.2503344524        0.9486985429  CLST         769          1.0000000000
      2308       770  TIP3  OH2          10.3327155040       -5.2481907891       11.2134799142  CLST         770          1.0000000000
      2309       770  TIP3  H1           10.0150314222       -4.4865614890       10.6795224234  CLST         770          1.0000000000
      2310       770  TIP3  H2           11.1261442960       -5.5043353773       10.6967347751  CLST         770          1.0000000000
      2311       771  TIP3  OH2         -10.6415549079        1.7931484098       -5.8065816500  CLST         771          1.0000000000
      2312       771  TIP3  H1           -9.8219136421        1.8186624841       -6.3338683608  CLST         771          1.0000000000
      2313       771  TIP3  H2          -10.2870856829        2.0981127716       -4.9482716653  CLST         771          1.0000000000
      2314       772  TIP3  OH2          12.3198399309      -12.2570193668       -6.4063775926  CLST         772          1.0000000000
      2315       772  TIP3  H1           12.4883812872      -11.3024797547       -6.5200878546  CLST         772          1.0000000000
      2316       772  TIP3  H2           11.5177821194      -12.2418936221       -5.8614063741  CLST         772          1.0000000000
      2317       773  TIP3  OH2          12.4612685647       -4.9811907173        3.3776348241  CLST         773          1.0000000000
      2318       773  TIP3  H1           12.6062540408       -4.7078174169        4.3003929525  CLST         773          1.0000000000
      2319       773  TIP3  H2           12.7603228082       -4.1796148498        2.8981962240  CLST         773          1.0000000000
      2320       774  TIP3  OH2          -7.7925019344       -0.3514181356       -5.7955262271  CLST         774          1.0000000000
      2321       774  TIP3  H1           -6.8343606396       -0.3980169291       -6.0010887235  CLST         774          1.0000000000
      2322       774  TIP3  H2           -7.9626941468        0.5841578507       -6.0447819951  CLST         774          1.0000000000
      2323       775  TIP3  OH2           2.7020293040        1.3294250063        5.2846633473  CLST         775          1.0000000000
      2324       775  TIP3  H1            2.6707552033        1.7379057662        6.1778893046  CLST         775          1.0000000000
      2325       775  TIP3  H2            3.5069183533        1.7529401715        4.9135608900  CLST         775          1.0000000000
      2326       776  TIP3  OH2           0.1046441293        9.5643035378        6.0571693508  CLST         776          1.0000000000
      2327       776  TIP3  H1           -0.6137186420       10.2333893601        6.0877573296  CLST         776          1.0000000000
      2328       776  TIP3  H2           -0.4295390534        8.7493465086        5.9768686367  CLST         776          1.0000000000
      2329       777  TIP3  OH2         -13.0144885956       -9.5415887710       -0.4956238360  CLST         777          1.0000000000
      2330       777  TIP3  H1          -12.4227549016       -8.7629362873       -0.4422039127  CLST         777          1.0000000000
      2331       777  TIP3  H2          -13.4184753100       -9.5593093127        0.3839918061  CLST         777          1.0000000000
      2332       778  TIP3  OH2         -11.4214918521        5.6758205010       -0.9505808621  CLST         778          1.0000000000
      2333       778  TIP3  H1          -11.4762795741        4.8161699445       -0.4824165874  CLST         778          1.0000000000
      2334       778  TIP3  H2          -11.5929144121        5.3993414376       -1.8792573153  CLST         778          1.0000000000
      2335       779  TIP3  OH2          -6.4795670055        4.9431895384       -1.3099301108  CLST         779          1.0000000000
      2336       779  TIP3  H1           -7.0176835493        4.2268778794       -0.9038451988  CLST         779          1.0000000000
      2337       779  TIP3  H2           -7.1467437120        5.6573005097       -1.3077905365  CLST         779          1.0000000000
      2338       780  TIP3  OH2           2.4563833793       13.3845780133       -8.6666111158  CLST         780          1.0000000000
      2339       780  TIP3  H1            2.0702202787       14.2861904708       -8.6832392422  CLST         780          1.0000000000
      2340       780  TIP3  H2            2.9594754797       13.4083515433       -9.5061971254  CLST         780          1.0000000000
      2341       781  TIP3  OH2           9.2021929440       -8.6224645667      -10.1481642463  CLST         781          1.0000000000
      2342       781  TIP3  H1            9.7768173506       -7.9566967084       -9.7131444193  CLST         781          1.0000000000
      2343       781  TIP3  H2            9.4347399799       -9.4184546695       -9.6277566970  CLST         781          1.0000000000
      2344       782  TIP3  OH2           0.4120476175        2.6354142611        4.1638248977  CLST         782          1.0000000000
      2345       782  TIP3  H1           -0.2456417785        2.0159035867        4.5453915313  CLST         782          1.0000000000
      2346       782  TIP3  H2            1.2481681658        2.2024880798        4.3988586878  CLST         782          1.0000000000
      2347       783  TIP3  OH2          -7.5572566381      -12.6304817679      -13.0346952843  CLST         783          1.0000000000
      2348       783  TIP3  H1           -8.1047259002      -12.3023085703      -12.2882716473  CLST         783          1.0000000000
      2349       783  TIP3  H2           -8.1636119331      -12.4683164694      -13.7896724710  CLST         783          1.0000000000
      2350       784  TIP3  OH2          14.4451509253        5.4804012456       -4.8881519572  CLST         784          1.0000000000
      2351       784  TIP3  H1           14.9500000000        6.2202511560       -4.4844660908  CLST         784          1.0000000000
      2352       784  TIP3  H2           13.7325534921        5.9775345770       -5.3346746669  CLST         784          1.0000000000
      2353       785  TIP3  OH2          10.6293624414        7.6931512599        1.7059437021  CLST         785          1.0000000000
      2354       785  TIP3  H1           10.4228274111        7.9221126456        2.6404110523  CLST         785          1.0000000000
      2355       785  TIP3  H2           11.3421825211        8.3226966049        1.4968596821  CLST         785          1.0000000000
      2356       786  TIP3  OH2          12.3612544796        3.2620985700       12.6088639125  CLST         786          1.0000000000
      2357       786  TIP3  H1           12.8121251360        4.1353406392       12.6038239134  CLST         786          1.0000000000
      2358       786  TIP3  H2           11.4950464424        3.5192805672       12.9897259082  CLST         786          1.0000000000
      2359       787  TIP3  OH2          -7.5066992681        0.8235551778       11.6431353523  CLST         787          1.0000000000
      2360       787  TIP3  H1           -8.0715288550        1.4545658050       11.1494592961  CLST         787          1.0000000000
      2361       787  TIP3  H2           -8.1527713408        0.1207090134       11.8921116964  CLST         787          1.0000000000
      2362       788  TIP3  OH2           3.1658487241      -13.3129526453       10.8462332880  CLST         788          1.0000000000
      2363       788  TIP3  H1            3.9586012006      -13.1687868034       11.3955057628  CLST         788          1.0000000000
      2364       788  TIP3  H2            3.2347562663      -14.2746820697       10.6992362644  CLST         788          1.0000000000
      2365       789  TIP3  OH2          -6.6775745518        1.4843174446       -3.3450925453  CLST         789          1.0000000000
      2366       789  TIP3  H1           -6.0403388523        0.7703779964       -3.5224547164  CLST         789          1.0000000000
      2367       789  TIP3  H2           -6.0608080787        2.2370626676       -3.2769919058  CLST         789          1.0000000000
      2368       790  TIP3  OH2         -10.6219459134       -8.4375412215        5.5582039504  CLST         790          1.0000000000
      2369       790  TIP3  H1          -10.4701008964       -8.0979259049        6.4622249965  CLST         790          1.0000000000
      2370       790  TIP3  H2          -11.4105349597       -7.9128513663        5.3160153764  CLST         790          1.0000000000
      2371       791  TIP3  OH2          -5.4163199833       -5.3627715064       -9.9733563653  CLST         791          1.0000000000
      2372       791  TIP3  H1           -4.5471022432       -5.8224180223       -9.9062529363  CLST         791          1.0000000000
      2373       791  TIP3  H2           -5.2021736742       -4.7324548278      -10.6987598599  CLST         791          1.0000000000
      2374       792  TIP3  OH2           7.3899635682       -4.9963532762        9.8703754177  CLST         792          1.0000000000
      2375       792  TIP3  H1            7.7497241504       -5.3112984513        9.0090726643  CLST         792          1.0000000000
      2376       792  TIP3  H2            7.9529037019       -4.2024741821        9.9843382612  CLST         792          1.0000000000
      2377       793  TIP3  OH2          -3.2861322636       12.9145073396       -3.8730288234  CLST         793          1.0000000000
      2378       793  TIP3  H1           -3.6519587595       12.6702360273       -2.9986712599  CLST         793          1.0000000000
      2379       793  TIP3  H2           -3.5467750702       12.1199444662       -4.3992089230  CLST         793          1.0000000000
      2380       794  TIP3  OH2          -0.4698715673        2.7939684506       -6.9359897498  CLST         794          1.0000000000
      2381       794  TIP3  H1           -0.8118454264        2.0746490021       -7.5109953991  CLST         794          1.0000000000
      2382       794  TIP3  H2           -0.8330391000        3.5817073522       -7.3920482164  CLST         794          1.0000000000
      2383       795  TIP3  OH2          -1.9917707654       -9.6145998117        0.7156525946  CLST         795          1.0000000000
      2384       795  TIP3  H1           -2.8073763347      -10.0941421087        0.4500777429  CLST         795          1.0000000000
      2385       795  TIP3  H2           -1.7385734019      -10.1024429867        1.5275294837  CLST         795          1.0000000000
      2386       796  TIP3  OH2           2.7286453484        4.7185470164        4.9542568209  CLST         796          1.0000000000
      2387       796  TIP3  H1            2.7818623721        4.2812854554        4.0795722021  CLST         796          1.0000000000
      2388       796  TIP3  H2            3.6703860625        4.9779412940        5.0811626896  CLST         796          1.0000000000
      2389       797  TIP3  OH2         -11.8767205687        5.2927487869       -3.6063669238  CLST         797          1.0000000000
      2390       797  TIP3  H1          -12.4356117636        6.0875951690       -3.7493461087  CLST         797          1.0000000000
      2391       797  TIP3  H2          -11.3948916308        5.2635101970       -4.4634990273  CLST         797          1.0000000000
      2392       798  TIP3  OH2         -12.1193305342        9.1774209761       10.3876528707  CLST         798          1.0000000000
      2393       798  TIP3  H1          -11.3880236810        9.6680942213       10.8136684285  CLST         798          1.0000000000
      2394       798  TIP3  H2          -12.8424194951        9.4718682941       10.9789238546  CLST         798          1.0000000000
      2395       799  TIP3  OH2           3.7571009832       -1.4783854329      -11.7489619448  CLST         799          1.0000000000
      2396       799  TIP3  H1            4.1599010941       -0.9740365959      -12.4658669681  CLST         799          1.0000000000
      2397       799  TIP3  H2            2.8160304773       -1.5160493565      -12.0085358548  CLST         799          1.0000000000
      2398       800  TIP3  OH2          -9.9935145100        7.4984060984        9.7235324230  CLST         800          1.0000000000
      2399       800  TIP3  H1          -10.7899371008        7.9940683989       10.0043109521  CLST         800          1.0000000000
      2400       800  TIP3  H2           -9.4899012931        8.2035516704        9.2672481787  CLST         800          1.0000000000
      2401       801  TIP3  OH2           7.7178438776      -11.3839832635      -10.4417139117  CLST         801          1.0000000000
      2402       801  TIP3  H1            7.5908631141      -12.3472776848      -10.3689314663  CLST         801          1.0000000000
      2403       801  TIP3  H2            8.5141185670      -11.3326523661      -11.0176268636  CLST         801          1.0000000000
      2404       802  TIP3  OH2           5.0505850858        0.3891658468       11.2658980950  CLST         802          1.0000000000
      2405       802  TIP3  H1            4.2820381527        0.3595534166       10.6535285962  CLST         802          1.0000000000
      2406       802  TIP3  H2            5.7835862706        0.1521338507       10.6642122832  CLST         802          1.0000000000
      2407       803  TIP3  OH2           6.3281027262       -9.8884492988        0.2223504406  CLST         803          1.0000000000
      2408       803  TIP3  H1            6.0161639029      -10.7802093460       -0.0474670208  CLST         803          1.0000000000
      2409       803  TIP3  H2            5.7148532471       -9.7077283142        0.9650473948  CLST         803          1.0000000000
      2410       804  TIP3  OH2           4.9793178158        6.0926162466        1.4938825130  CLST         804          1.0000000000
      2411       804  TIP3  H1            4.4055913408        5.8559694847        0.7365051192  CLST         804          1.0000000000
      2412       804  TIP3  H2            5.4725244234        5.2519990525        1.6051153003  CLST         804          1.0000000000
      2413       805  TIP3  OH2           7.6154286119       -3.8064047743       13.6018215829  CLST         805          1.0000000000
      2414       805  TIP3  H1            7.8846119968       -2.8824596769       13.7843060493  CLST         805          1.0000000000
      2415       805  TIP3  H2            8.4577071567       -4.2655783848       13.7793847183  CLST         805          1.0000000000
      2416       806  TIP3  OH2           8.9937092621       10.1938126094       12.7296884878  CLST         806          1.0000000000
      2417       806  TIP3  H1            8.5643527716        9.5937538175       12.0796878639  CLST         806          1.0000000000
      2418       806  TIP3  H2            8.3278064644       10.9161521694       12.7383482926  CLST         806          1.0000000000
      2419       807  TIP3  OH2          -3.6193233727        8.0940749558        1.6601312342  CLST         807          1.0000000000
      2420       807  TIP3  H1           -3.4043247573        8.9694508014        1.2739941358  CLST         807          1.0000000000
      2421       807  TIP3  H2           -3.6287018866        8.3021154655        2.6131880015  CLST         807          1.0000000000
      2422       808  TIP3  OH2          -3.3389511194       14.1779941036        0.9189850576  CLST         808          1.0000000000
      2423       808  TIP3  H1           -2.6220917315       14.2296017226        1.5866796839  CLST         808          1.0000000000
      2424       808  TIP3  H2           -2.8181827544       13.8115049804        0.1692509456  CLST         808          1.0000000000
      2425       809  TIP3  OH2           1.4672513658       13.1869950761        9.1456519398  CLST         809          1.0000000000
      2426       809  TIP3  H1            1.7646048539       12.5714346247        8.4458736295  CLST         809          1.0000000000
      2427       809  TIP3  H2            0.8192667455       13.7415171529        8.6573255362  CLST         809          1.0000000000
      2428       810  TIP3  OH2          -2.0016100597        8.6003245587        8.8565867791  CLST         810          1.0000000000
      2429       810  TIP3  H1           -1.1644485397        8.1863262469        8.5695117682  CLST         810          1.0000000000
      2430       810  TIP3  H2           -2.1312718525        8.2037935951        9.7444532904  CLST         810          1.0000000000
      2431       811  TIP3  OH2          -4.1144784275      -12.4603190936       -8.6059426540  CLST         811          1.0000000000
      2432       811  TIP3  H1           -3.8932623263      -12.8428310131       -9.4761479352  CLST         811          1.0000000000
      2433       811  TIP3  H2           -4.7989482035      -11.8148945420       -8.8898160015  CLST         811          1.0000000000
      2434       812  TIP3  OH2          11.0190411400        4.6280204952      -13.6520642004  CLST         812          1.0000000000
      2435       812  TIP3  H1           11.4943762620        3.8497536799      -13.2874800053  CLST         812          1.0000000000
      2436       812  TIP3  H2           11.7202167602        5.0330903439      -14.2014790670  CLST         812          1.0000000000
      2437       813  TIP3  OH2          -2.1930770487        0.6827185843      -13.9068874059  CLST         813          1.0000000000
      2438       813  TIP3  H1           -2.1043458791        1.2616893313      -14.6994620569  CLST         813          1.0000000000
      2439       813  TIP3  H2           -3.1735156246        0.7727075380      -13.7956338340  CLST         813          1.0000000000
      2440       814  TIP3  OH2          -7.5208587922        8.2979213449       -8.8417530369  CLST         814          1.0000000000
      2441       814  TIP3  H1           -6.5666224653        8.2519900225       -8.6234532196  CLST         814          1.0000000000
      2442       814  TIP3  H2           -7.8166509207        7.4040829124       -8.6224698985  CLST         814          1.0000000000
      2443       815  TIP3  OH2          -4.9331530038        1.9814736479       -8.1668042088  CLST         815          1.0000000000
      2444       815  TIP3  H1           -4.6467041717        2.6283409373       -7.4845747015  CLST         815          1.0000000000
      2445       815  TIP3  H2           -5.7757661693        2.3616866582       -8.4987366035  CLST         815          1.0000000000
      2446       816  TIP3  OH2          -8.4975928332      -13.7265916366        1.3163029960  CLST         816          1.0000000000
      2447       816  TIP3  H1           -8.8845601973      -14.4812394340        1.8006820992  CLST         816          1.0000000000
      2448       816  TIP3  H2           -9.3129408369      -13.3315331279        0.9338203768  CLST         816          1.0000000000
      2449       817  TIP3  OH2           3.5434525280       13.9182042367       10.7563076899  CLST         817          1.0000000000
      2450       817  TIP3  H1            2.7629241644       13.6606119196       10.2144825638  CLST         817          1.0000000000
      2451       817  TIP3  H2            3.2354684879       13.7185768324       11.6664442268  CLST         817          1.0000000000
      2452       818  TIP3  OH2          11.7116042766       -3.5197911783       -5.6512394269  CLST         818          1.0000000000
      2453       818  TIP3  H1           11.6245248327       -2.6745465097       -5.1576701516  CLST         818          1.0000000000
      2454       818  TIP3  H2           10.7689497014       -3.6842008900       -5.8834500687  CLST         818          1.0000000000
      2455       819  TIP3  OH2           0.1557129638        0.0755018227      -10.5224806096  CLST         819          1.0000000000
      2456       819  TIP3  H1            0.5064636685       -0.6189730726      -11.1204819899  CLST         819          1.0000000000
      2457       819  TIP3  H2            0.9504395312        0.6495876098      -10.4494506580  CLST         819          1.0000000000
      2458       820  TIP3  OH2         -11.2546826453       -7.4434158892       13.7669782050  CLST         820          1.0000000000
      2459       820  TIP3  H1          -11.7299367894       -8.2955422281       13.7905005752  CLST         820          1.0000000000
      2460       820  TIP3  H2          -10.5991873217       -7.6223830331       13.0618579319  CLST         820          1.0000000000
      2461       821  TIP3  OH2          11.2572853634       -1.0248702140       14.4370286880  CLST         821          1.0000000000
      2462       821  TIP3  H1           11.7499560209       -1.8677568489       14.3274933848  CLST         821          1.0000000000
      2463       821  TIP3  H2           11.4100073142       -0.6131292314       13.5673705398  CLST         821          1.0000000000
      2464       822  TIP3  OH2          -7.1058458418       13.8579966186        8.8111997746  CLST         822          1.0000000000
      2465       822  TIP3  H1           -6.4474697610       13.5452819612        8.1514287852  CLST         822          1.0000000000
      2466       822  TIP3  H2           -6.9932912392       13.1790905467        9.5118911824  CLST         822          1.0000000000
      2467       823  TIP3  OH2          -8.5044879439       -1.8391607294        7.3717884512  CLST         823          1.0000000000
      2468       823  TIP3  H1           -9.0745665497       -2.4921780964        7.8311428299  CLST         823          1.0000000000
      2469       823  TIP3  H2           -7.6996201714       -2.3753718090        7.2539629774  CLST         823          1.0000000000
      2470       824  TIP3  OH2          10.6817281882        0.4787902811        6.6878005298  CLST         824          1.0000000000
      2471       824  TIP3  H1           10.0513021431        0.6007237759        5.9425099187  CLST         824          1.0000000000
      2472       824  TIP3  H2           11.4608924275        0.9339948922        6.3035228422  CLST         824          1.0000000000
      2473       825  TIP3  OH2          -4.9898291036      -11.6206144189      -13.4264421661  CLST         825          1.0000000000
      2474       825  TIP3  H1           -5.8769022062      -12.0355335636      -13.4223972578  CLST         825          1.0000000000
      2475       825  TIP3  H2           -5.1896075557      -10.7865989650      -12.9494182350  CLST         825          1.0000000000
      2476       826  TIP3  OH2           4.0113080220      -14.1766970339        2.4475201271  CLST         826          1.0000000000
      2477       826  TIP3  H1            3.6442860298      -14.3730016591        3.3283957501  CLST         826          1.0000000000
      2478       826  TIP3  H2            4.9118594166      -14.5559991699        2.5329966508  CLST         826          1.0000000000
      2479       827  TIP3  OH2         -10.5901762423        8.1509177758       -6.3369483444  CLST         827          1.0000000000
      2480       827  TIP3  H1           -9.8693375209        8.2399827882       -5.6708955799  CLST         827          1.0000000000
      2481       827  TIP3  H2          -10.7654101203        7.1884730265       -6.2614352350  CLST         827          1.0000000000
      2482       828  TIP3  OH2          -9.5087044349       -7.7089299723       11.6215621869  CLST         828          1.0000000000
      2483       828  TIP3  H1           -8.6211240253       -8.0796491456       11.8447446216  CLST         828          1.0000000000
      2484       828  TIP3  H2           -9.2382459381       -6.8225128103       11.2867826386  CLST         828          1.0000000000
      2485       829  TIP3  OH2           3.4153648079       13.2938938435        5.9309883868  CLST         829          1.0000000000
      2486       829  TIP3  H1            4.0501052648       13.4509071500        6.6607975328  CLST         829          1.0000000000
      2487       829  TIP3  H2            3.3225195905       14.1976011306        5.5624354791  CLST         829          1.0000000000
      2488       830  TIP3  OH2          13.5202457307        3.5354615109        7.9050843398  CLST         830          1.0000000000
      2489       830  TIP3  H1           13.7640401104        3.7644222738        8.8282084891  CLST         830          1.0000000000
      2490       830  TIP3  H2           14.3988939441        3.5786145351        7.4851192811  CLST         830          1.0000000000
      2491       831  TIP3  OH2           2.5595699891        2.5196986910        7.7557651744  CLST         831          1.0000000000
      2492       831  TIP3  H1            3.0391502616        3.3512419363        7.9473313651  CLST         831          1.0000000000
      2493       831  TIP3  H2            1.6589945944        2.8756419349        7.6526165962  CLST         831          1.0000000000
      2494       832  TIP3  OH2         -12.9768322282       -2.7137704565        0.8832708060  CLST         832          1.0000000000
      2495       832  TIP3  H1          -12.9107588522       -1.8574717043        0.4110839618  CLST         832          1.0000000000
      2496       832  TIP3  H2          -13.2765862331       -2.4513939361        1.7784864108  CLST         832          1.0000000000
      2497       833  TIP3  OH2           0.6471130424      -10.6934402949        5.0985142017  CLST         833          1.0000000000
      2498       833  TIP3  H1            0.6139030735       -9.8471087285        5.5896122606  CLST         833          1.0000000000
      2499       833  TIP3  H2            1.6100704749      -10.8669120034        5.0552554538  CLST         833          1.0000000000
      2500       834  TIP3  OH2           2.8696317919       -3.2941564285        4.4757792839  CLST         834          1.0000000000
      2501       834  TIP3  H1            2.3615292651       -2.4616365109        4.3693627738  CLST         834          1.0000000000
      2502       834  TIP3  H2            3.1575378770       -3.2038618191        5.4104431315  CLST         834          1.0000000000
      2503       835  TIP3  OH2           4.1223265633        2.3226761277        0.1653310097  CLST         835          1.0000000000
      2504       835  TIP3  H1            3.8068888150        2.7034098449       -0.6840837251  CLST         835          1.0000000000
      2505       835  TIP3  H2            4.2309040621        1.3921250346       -0.1213670734  CLST         835          1.0000000000
      2506       836  TIP3  OH2           8.3824757586       -5.5777855267       -8.9943668648  CLST         836          1.0000000000
      2507       836  TIP3  H1            7.6882760957       -6.2552502719       -8.8593912650  CLST         836          1.0000000000
      2508       836  TIP3  H2            9.1944680085       -6.0856119448       -8.8296253623  CLST         836          1.0000000000
      2509       837  TIP3  OH2           3.2807608995        5.8032814091       -0.7020980495  CLST         837          1.0000000000
      2510       837  TIP3  H1            2.5275500040        5.4856063862       -1.2407145806  CLST         837          1.0000000000
      2511       837  TIP3  H2            2.7937181651        6.4468995915       -0.1424855826  CLST         837          1.0000000000
      2512       838  TIP3  OH2          -1.2483008734      -12.8197604780      -10.4290950185  CLST         838          1.0000000000
      2513       838  TIP3  H1           -1.0082961277      -13.7648739620      -10.3508130272  CLST         838          1.0000000000
      2514       838  TIP3  H2           -2.1389622935      -12.9153639403      -10.8347779154  CLST         838          1.0000000000
      2515       839  TIP3  OH2           1.0110165758       -7.6234717246       -1.7753137573  CLST         839          1.0000000000
      2516       839  TIP3  H1            0.8890663566       -8.1340471061       -0.9423281388  CLST         839          1.0000000000
      2517       839  TIP3  H2            0.2625719798       -7.9375811206       -2.3053361098  CLST         839          1.0000000000
      2518       840  TIP3  OH2          -7.1187969509       11.7555477316       10.5808121236  CLST         840          1.0000000000
      2519       840  TIP3  H1           -6.8783007940       11.3822285999       11.4538792265  CLST         840          1.0000000000
      2520       840  TIP3  H2           -6.6229386494       11.1337493663       10.0075074178  CLST         840          1.0000000000
      2521       841  TIP3  OH2          -7.7831062269       -7.1973404111       -4.0156543679  CLST         841          1.0000000000
      2522       841  TIP3  H1           -7.5492690822       -7.6075195251       -3.1566674108  CLST         841          1.0000000000
      2523       841  TIP3  H2           -6.9120528213       -6.8153422402       -4.2493942225  CLST         841          1.0000000000
      2524       842  TIP3  OH2          11.7247712083      -13.5029762135        1.0956842219  CLST         842          1.0000000000
      2525       842  TIP3  H1           10.8315518790      -13.6299429514        1.4770631500  CLST         842          1.0000000000
      2526       842  TIP3  H2           11.9044496366      -14.3800085038        0.7379388407  CLST         842          1.0000000000
      2527       843  TIP3  OH2           9.5310401633       13.3277333181        3.2851910045  CLST         843          1.0000000000
      2528       843  TIP3  H1            9.0552618308       12.9277362470        4.0417756962  CLST         843          1.0000000000
      2529       843  TIP3  H2            8.8458195425       13.2199950715        2.5904746466  CLST         843          1.0000000000
      2530       844  TIP3  OH2           1.5408858629      -12.3770407096       -2.0354749576  CLST         844          1.0000000000
      2531       844  TIP3  H1            2.0249102675      -12.7742731661       -1.2823575488  CLST         844          1.0000000000
      2532       844  TIP3  H2            0.6403036813      -12.2994599724       -1.6531485922  CLST         844          1.0000000000
      2533       845  TIP3  OH2          14.5684763852        4.2456249819       10.3439639097  CLST         845          1.0000000000
      2534       845  TIP3  H1           14.2370102789        4.8168523904       11.0670883528  CLST         845          1.0000000000
      2535       845  TIP3  H2           14.7696166960        3.4350648938       10.8407040149  CLST         845          1.0000000000
      2536       846  TIP3  OH2         -10.8807475448       -7.3205455996        2.6613843947  CLST         846          1.0000000000
      2537       846  TIP3  H1          -11.5747649294       -7.9391825258        2.9818659063  CLST         846          1.0000000000
      2538       846  TIP3  H2          -11.3982040185       -6.4882867610        2.6647281454  CLST         846          1.0000000000
      2539       847  TIP3  OH2           5.1713677528        9.0079740325        4.8907242723  CLST         847          1.0000000000
      2540       847  TIP3  H1            5.0778750745        9.9627932025        4.6704465865  CLST         847          1.0000000000
      2541       847  TIP3  H2            5.9053015448        9.0501107932        5.5329043553  CLST         847          1.0000000000
      2542       848  TIP3  OH2          -9.2934315542        5.7452721181       -9.5855854667  CLST         848          1.0000000000
      2543       848  TIP3  H1           -9.9863373297        5.2793354006      -10.1020525545  CLST         848          1.0000000000
      2544       848  TIP3  H2           -9.7536427810        6.6024106608       -9.4443102799  CLST         848          1.0000000000
      2545       849  TIP3  OH2          -1.4112720382        1.8929111895        0.4418897180  CLST         849          1.0000000000
      2546       849  TIP3  H1           -0.5247235034        2.1992267493        0.1554480060  CLST         849          1.0000000000
      2547       849  TIP3  H2           -1.8944637957        1.9413736681       -0.4092813572  CLST         849          1.0000000000
      2548       850  TIP3  OH2           5.2274350506       -6.7048534683        5.7447714107  CLST         850          1.0000000000
      2549       850  TIP3  H1            4.4522111120       -6.4692873568        6.3034609664  CLST         850          1.0000000000
      2550       850  TIP3  H2            5.4563500031       -5.8367603391        5.3655895191  CLST         850          1.0000000000
      2551       851  TIP3  OH2           7.7662747787        6.8859132899        5.2973531536  CLST         851          1.0000000000
      2552       851  TIP3  H1            7.5100976061        7.5776149236        5.9319457712  CLST         851          1.0000000000
      2553       851  TIP3  H2            8.5028437000        7.3363090418        4.8289870352  CLST         851          1.0000000000
      2554       852  TIP3  OH2           8.8655530815        3.8673512779        2.0245478382  CLST         852          1.0000000000
      2555       852  TIP3  H1            8.8734813985        4.0028215922        2.9964336669  CLST         852          1.0000000000
      2556       852  TIP3  H2            7.9010720065        3.8300612002        1.8523840650  CLST         852          1.0000000000
      2557       853  TIP3  OH2           7.8334956483       -5.7162673092       -3.1431116981  CLST         853          1.0000000000
      2558       853  TIP3  H1            7.5015675424       -5.2356904460       -3.9342588475  CLST         853          1.0000000000
      2559       853  TIP3  H2            7.2664814237       -5.2801956646       -2.4675460617  CLST         853          1.0000000000
      2560       854  TIP3  OH2          -9.7675585110       -8.7498524837       -5.3259878696  CLST         854          1.0000000000
      2561       854  TIP3  H1           -8.9522859329       -8.2805070910       -5.0600700371  CLST         854          1.0000000000
      2562       854  TIP3  H2          -10.2124807554       -8.7979650052       -4.4503508227  CLST         854          1.0000000000
      2563       855  TIP3  OH2           2.7515375270       -3.3452032375       -6.9024386420  CLST         855          1.0000000000
      2564       855  TIP3  H1            1.9526797559       -3.4180436145       -6.3434554993  CLST         855          1.0000000000
      2565       855  TIP3  H2            2.9273013962       -2.3806621829       -6.9008877563  CLST         855          1.0000000000
      2566       856  TIP3  OH2           3.2233170170      -13.1869497834        0.0914651526  CLST         856          1.0000000000
      2567       856  TIP3  H1            4.0747475860      -12.7641682809       -0.1582712817  CLST         856          1.0000000000
      2568       856  TIP3  H2            3.4825383226      -13.5654769525        0.9682840003  CLST         856          1.0000000000
      2569       857  TIP3  OH2          -3.0481502139       -5.6413811014       10.7423833613  CLST         857          1.0000000000
      2570       857  TIP3  H1           -3.5390498331       -6.3502536696       11.1905730165  CLST         857          1.0000000000
      2571       857  TIP3  H2           -3.4131857250       -4.8653895429       11.2065353437  CLST         857          1.0000000000
      2572       858  TIP3  OH2           5.5945670333      -13.3813715733       12.1871302132  CLST         858          1.0000000000
      2573       858  TIP3  H1            6.2516777506      -12.6587116790       12.1926774384  CLST         858          1.0000000000
      2574       858  TIP3  H2            5.2067281978      -13.2729232441       13.0845830330  CLST         858          1.0000000000
      2575       859  TIP3  OH2          -8.5309880265       -1.7222564585      -13.0107466709  CLST         859          1.0000000000
      2576       859  TIP3  H1           -7.9289535865       -2.4900481901      -13.1007999493  CLST         859          1.0000000000
      2577       859  TIP3  H2           -8.1165516434       -1.2701965977      -12.2433661731  CLST         859          1.0000000000
      2578       860  TIP3  OH2          -8.6404191954       -6.6098376524       -0.4405495834  CLST         860          1.0000000000
      2579       860  TIP3  H1           -8.0570989162       -5.8656492329       -0.7014916557  CLST         860          1.0000000000
      2580       860  TIP3  H2           -8.1014433571       -7.3429919645       -0.8030853146  CLST         860          1.0000000000
      2581       861  TIP3  OH2           5.2183137921       -9.5380111861       -4.4446018647  CLST         861          1.0000000000
      2582       861  TIP3  H1            4.6759336189       -9.9436598120       -3.7296801853  CLST         861          1.0000000000
      2583       861  TIP3  H2            6.0928791434       -9.4947938694       -4.0229577711  CLST         861          1.0000000000
      2584       862  TIP3  OH2         -10.8308757859       -3.2071501527      -12.7563956939  CLST         862          1.0000000000
      2585       862  TIP3  H1          -10.1476494876       -2.5876749583      -13.0896190504  CLST         862          1.0000000000
      2586       862  TIP3  H2          -10.7670205105       -3.0060992390      -11.7953223801  CLST         862          1.0000000000
      2587       863  TIP3  OH2          10.4422610120      -10.5618380660       -8.5290689068  CLST         863          1.0000000000
      2588       863  TIP3  H1           11.0511530983      -10.1207867843       -7.9004968842  CLST         863          1.0000000000
      2589       863  TIP3  H2           11.0851275176      -11.0053952241       -9.1233540227  CLST         863          1.0000000000
      2590       864  TIP3  OH2         -13.3906732700        3.6683748725        2.4242133454  CLST         864          1.0000000000
      2591       864  TIP3  H1          -14.1133542174        3.9378223001        3.0294368682  CLST         864          1.0000000000
      2592       864  TIP3  H2          -12.7763550409        4.4206491266        2.5360921503  CLST         864          1.0000000000
      2593       865  TIP3  OH2          12.8620617663        8.8421860333      -11.2127583534  CLST         865          1.0000000000
      2594       865  TIP3  H1           13.3194343702        8.0320937102      -11.5171456743  CLST         865          1.0000000000
      2595       865  TIP3  H2           12.8547974048        8.6603714110      -10.2451878018  CLST         865          1.0000000000
      2596       866  TIP3  OH2           6.8391817644       -9.9660622091       -8.3104487301  CLST         866          1.0000000000
      2597       866  TIP3  H1            6.1939499960      -10.6420452235       -8.0132363276  CLST         866          1.0000000000
      2598       866  TIP3  H2            7.1725509180      -10.3948884635       -9.1337291883  CLST         866          1.0000000000
      2599       867  TIP3  OH2          -7.8630183479       12.1546618005       -3.2541177104  CLST         867          1.0000000000
      2600       867  TIP3  H1           -8.7109771704       11.9638200921       -2.8064372067  CLST         867          1.0000000000
      2601       867  TIP3  H2           -7.4936740400       12.8298054910       -2.6422396624  CLST         867          1.0000000000
      2602       868  TIP3  OH2          -9.5264771965       13.2806487348       10.4573443460  CLST         868          1.0000000000
      2603       868  TIP3  H1           -8.8305046231       12.6273771976       10.6560352981  CLST         868          1.0000000000
      2604       868  TIP3  H2           -9.0513873874       13.8818503533        9.8717759144  CLST         868          1.0000000000
      2605       869  TIP3  OH2           3.2621046140       -1.0150289240        1.8698569821  CLST         869          1.0000000000
      2606       869  TIP3  H1            2.4412774748       -1.1719694175        1.3537169501  CLST         869          1.0000000000
      2607       869  TIP3  H2            2.8635073245       -0.9895398944        2.7636732647  CLST         869          1.0000000000
      2608       870  TIP3  OH2          -6.9148424806       -3.9590425037      -13.1248164571  CLST         870          1.0000000000
      2609       870  TIP3  H1           -6.0452893219       -3.7988654673      -12.6954400390  CLST         870          1.0000000000
      2610       870  TIP3  H2           -6.6506754631       -4.0671799444      -14.0562080984  CLST         870          1.0000000000
      2611       871  TIP3  OH2          -7.2445398151        2.6731176109       -9.4548233335  CLST         871          1.0000000000
      2612       871  TIP3  H1           -7.0427835250        2.5661983673      -10.4002451656  CLST         871          1.0000000000
      2613       871  TIP3  H2           -8.2271577343        2.7640689168       -9.4993347361  CLST         871          1.0000000000
      2614       872  TIP3  OH2         -13.0226859640       11.0247234291       -9.4804717710  CLST         872          1.0000000000
      2615       872  TIP3  H1          -12.9690013444       11.2957223478      -10.4263994125  CLST         872          1.0000000000
      2616       872  TIP3  H2          -13.1863266630       10.0703883854       -9.6030528058  CLST         872          1.0000000000
      2617       873  TIP3  OH2          11.5879022262       -4.2926955381       -9.8050280035  CLST         873          1.0000000000
      2618       873  TIP3  H1           10.8922253851       -3.6344111157       -9.5846148003  CLST         873          1.0000000000
      2619       873  TIP3  H2           11.5969979877       -4.2539880484      -10.7850446942  CLST         873          1.0000000000
      2620       874  TIP3  OH2          12.6261760758        8.3045089529       -8.5274218162  CLST         874          1.0000000000
      2621       874  TIP3  H1           12.7980254905        7.6610537460       -7.8040467103  CLST         874          1.0000000000
      2622       874  TIP3  H2           11.6486143623        8.3888444583       -8.4744183804  CLST         874          1.0000000000
      2623       875  TIP3  OH2           1.0252595217       -1.7701593626      -12.3698854859  CLST         875          1.0000000000
      2624       875  TIP3  H1            0.9216133372       -2.7207915747      -12.1514380459  CLST         875          1.0000000000
      2625       875  TIP3  H2            0.4321368652       -1.6933013366      -13.1432989926  CLST         875          1.0000000000
      2626       876  TIP3  OH2           8.9609884186        7.8403348038      -12.7468360818  CLST         876          1.0000000000
      2627       876  TIP3  H1            8.7398259719        7.0253846071      -13.2387325691  CLST         876          1.0000000000
      2628       876  TIP3  H2            8.2124074344        8.4150895540      -13.0226629933  CLST         876          1.0000000000
      2629       877  TIP3  OH2          -7.3423736389      -13.4347170812       -4.9010533389  CLST         877          1.0000000000
      2630       877  TIP3  H1           -7.7469970761      -12.7981700172       -4.2784103399  CLST         877          1.0000000000
      2631       877  TIP3  H2           -6.4773677823      -13.0307308564       -5.0962082634  CLST         877          1.0000000000
      2632       878  TIP3  OH2           5.5289320366      -11.1020251930        5.8932721392  CLST         878          1.0000000000
      2633       878  TIP3  H1            6.0721553206      -10.8555766053        5.1135898160  CLST         878          1.0000000000
      2634       878  TIP3  H2            4.6502490426      -11.1652597768        5.4558747153  CLST         878          1.0000000000
      2635       879  TIP3  OH2           2.4065455002        4.8797617378       -6.5211358946  CLST         879          1.0000000000
      2636       879  TIP3  H1            3.2013315902        5.3740864912       -6.8178495204  CLST         879          1.0000000000
      2637       879  TIP3  H2            2.6573565722        4.7067978016       -5.5935813049  CLST         879          1.0000000000
      2638       880  TIP3  OH2          -5.3951446533       -1.8629702033       14.8871314717  CLST         880          1.0000000000
      2639       880  TIP3  H1           -6.0085877109       -2.5313308687       14.5270147778  CLST         880          1.0000000000
      2640       880  TIP3  H2           -5.8529481629       -1.0285761267       14.6740169654  CLST         880          1.0000000000
      2641       881  TIP3  OH2          -0.6113388763       14.2825168495        7.7313072540  CLST         881          1.0000000000
      2642       881  TIP3  H1           -0.2113500498       13.9997805949        6.8847807278  CLST         881          1.0000000000
      2643       881  TIP3  H2           -1.5690532389       14.1858319944        7.5296809297  CLST         881          1.0000000000
      2644       882  TIP3  OH2          11.6752725089       -1.7368484207       -1.2388081984  CLST         882          1.0000000000
      2645       882  TIP3  H1           12.0981132353       -2.6065611560       -1.0974832017  CLST         882          1.0000000000
      2646       882  TIP3  H2           10.7272220874       -1.9741589418       -1.3357485693  CLST         882          1.0000000000
      2647       883  TIP3  OH2           2.0168738422       -9.0770154876       -4.6928324989  CLST         883          1.0000000000
      2648       883  TIP3  H1            2.5941468486       -8.4513359698       -4.2094125442  CLST         883          1.0000000000
      2649       883  TIP3  H2            2.5300262009       -9.2190096169       -5.5143215816  CLST         883          1.0000000000
      2650       884  TIP3  OH2         -14.1239713681       -6.0342520614      -13.0274002333  CLST         884          1.0000000000
      2651       884  TIP3  H1          -13.5237193326       -6.8146347584      -12.9382430939  CLST         884          1.0000000000
      2652       884  TIP3  H2          -14.9500000000       -6.4426049016      -12.6794373965  CLST         884          1.0000000000
      2653       885  TIP3  OH2           1.0170721155       13.5606492074       -0.8961633125  CLST         885          1.0000000000
      2654       885  TIP3  H1            0.0469871974       13.6977463084       -0.8874391463  CLST         885          1.0000000000
      2655       885  TIP3  H2            1.0819299111       12.7456595675       -0.3485241738  CLST         885          1.0000000000
      2656       886  TIP3  OH2          12.5476515450       10.6014405055        4.8280080283  CLST         886          1.0000000000
      2657       886  TIP3  H1           13.3781166970       10.6513024312        5.3119137146  CLST         886          1.0000000000
      2658       886  TIP3  H2           11.9604693387       10.1760030168        5.4883321674  CLST         886          1.0000000000
      2659       887  TIP3  OH2          -6.7796021653       -8.2283587202       -1.6868054471  CLST         887          1.0000000000
      2660       887  TIP3  H1           -6.7361521685       -9.1970413892       -1.8233345345  CLST         887          1.0000000000
      2661       887  TIP3  H2           -5.8185242334       -8.0321576536       -1.6033969004  CLST         887          1.0000000000
      2662       888  TIP3  OH2         -13.2515356979       -2.6176283942       10.6147467869  CLST         888          1.0000000000
      2663       888  TIP3  H1          -13.5231347686       -2.6550686438       11.5523248304  CLST         888          1.0000000000
      2664       888  TIP3  H2          -12.4585774572       -2.0443960854       10.6901336399  CLST         888          1.0000000000
      2665       889  TIP3  OH2           4.6739682858      -12.4447125473        8.1184708733  CLST         889          1.0000000000
      2666       889  TIP3  H1            4.9760212033      -11.8911404527        7.3677603505  CLST         889          1.0000000000
      2667       889  TIP3  H2            4.7104963425      -11.7961055857        8.8566614100  CLST         889          1.0000000000
      2668       890  TIP3  OH2         -13.4634456810        5.6709962010       -9.9465642780  CLST         890          1.0000000000
      2669       890  TIP3  H1          -13.4143228059        6.6490869527      -10.0378180603  CLST         890          1.0000000000
      2670       890  TIP3  H2          -14.3940295282        5.5011087864      -10.1562030257  CLST         890          1.0000000000
      2671       891  TIP3  OH2         -12.7765812836       -5.3734255314       10.4014916047  CLST         891          1.0000000000
      2672       891  TIP3  H1          -13.1084489842       -4.4530058987       10.3616114945  CLST         891          1.0000000000
      2673       891  TIP3  H2          -12.5758012526       -5.5121713725        9.4483131220  CLST         891          1.0000000000
      2674       892  TIP3  OH2           2.9413651236       13.4532033232       13.4057675284  CLST         892          1.0000000000
      2675       892  TIP3  H1            3.1189520144       14.2630163724       13.9013883886  CLST         892          1.0000000000
      2676       892  TIP3  H2            3.2191729554       12.7608828400       14.0467109518  CLST         892          1.0000000000
      2677       893  TIP3  OH2          -0.2556376338        7.6340829664        3.3226614076  CLST         893          1.0000000000
      2678       893  TIP3  H1           -0.6745275395        7.0239054741        2.6884731455  CLST         893          1.0000000000
      2679       893  TIP3  H2           -0.6198089804        8.4949682881        3.0396181272  CLST         893          1.0000000000
      2680       894  TIP3  OH2           9.3905836092       10.9319292324        0.7892070221  CLST         894          1.0000000000
      2681       894  TIP3  H1           10.1420000359       11.1860225059        1.3673496703  CLST         894          1.0000000000
      2682       894  TIP3  H2            8.8142069276       11.7238096002        0.8542313637  CLST         894          1.0000000000
      2683       895  TIP3  OH2          -9.4673690517       10.2933126564      -10.4821116956  CLST         895          1.0000000000
      2684       895  TIP3  H1           -9.7907411863       11.0143774085       -9.9033601690  CLST         895          1.0000000000
      2685       895  TIP3  H2           -8.5641589059       10.6284572927      -10.6981413744  CLST         895          1.0000000000
      2686       896  TIP3  OH2           7.4219293947       -6.5231433291       -0.1171524896  CLST         896          1.0000000000
      2687       896  TIP3  H1            6.7214147468       -6.7871636576       -0.7459358133  CLST         896          1.0000000000
      2688       896  TIP3  H2            8.1510161397       -7.1056563938       -0.4059104660  CLST         896          1.0000000000
      2689       897  TIP3  OH2           9.6435730707       -2.6884294263       -8.6921756140  CLST         897          1.0000000000
      2690       897  TIP3  H1            9.3407570100       -3.2572130939       -7.9530031635  CLST         897          1.0000000000
      2691       897  TIP3  H2            9.6278728021       -1.8067673537       -8.2669931398  CLST         897          1.0000000000
      2692       898  TIP3  OH2          13.4380017225        6.1847634499      -11.8530686206  CLST         898          1.0000000000
      2693       898  TIP3  H1           13.7598744374        5.4029912650      -11.3636796173  CLST         898          1.0000000000
      2694       898  TIP3  H2           12.4870363707        6.1716022008      -11.6145837099  CLST         898          1.0000000000
      2695       899  TIP3  OH2          13.5305515661       -6.0105357932        0.9153859451  CLST         899          1.0000000000
      2696       899  TIP3  H1           13.4395857268       -6.9730157842        0.9025305040  CLST         899          1.0000000000
      2697       899  TIP3  H2           13.2375361123       -5.8040334400        1.8213498631  CLST         899          1.0000000000
      2698       900  TIP3  OH2          -9.4395076515      -10.0835133634       10.1156525015  CLST         900          1.0000000000
      2699       900  TIP3  H1           -9.6728885930       -9.3020728570       10.6496535871  CLST         900          1.0000000000
      2700       900  TIP3  H2           -8.6317258644       -9.7345767284        9.6798317226  CLST         900          1.0000000000
      2701       901  TIP3  OH2           9.9871637074        9.0245038395       -8.4132888611  CLST         901          1.0000000000
      2702       901  TIP3  H1            9.1813479127        8.8106563545       -8.9236710202  CLST         901          1.0000000000
      2703       901  TIP3  H2           10.0767031030        9.9698697075       -8.6518024070  CLST         901          1.0000000000
      2704       902  TIP3  OH2           2.9846510386        0.4312034818        9.4990681769  CLST         902          1.0000000000
      2705       902  TIP3  H1            3.4850178487       -0.1238359696        8.8652292380  CLST         902          1.0000000000
      2706       902  TIP3  H2            2.7243100799        1.1789553788        8.9212506690  CLST         902          1.0000000000
      2707       903  TIP3  OH2          -1.1646429698        0.4486036363       -8.1787524782  CLST         903          1.0000000000
      2708       903  TIP3  H1           -0.7305305328        0.3711759410       -9.0568773374  CLST         903          1.0000000000
      2709       903  TIP3  H2           -0.5949976726       -0.1596498423       -7.6583699928  CLST         903          1.0000000000
