PSF EXT CMAP XPLOR AUTOG

         1 !NTITLE
*  DATE:     7/21/26     14:27:39      CREATED BY USER: boittier                

      1644 !NATOM
         1 CLST     1        TIP3     OH2      OT        0.00000       15.9994           0
         2 CLST     1        TIP3     H1       HT        0.00000       1.00800           0
         3 CLST     1        TIP3     H2       HT        0.00000       1.00800           0
         4 CLST     2        TIP3     OH2      OT        0.00000       15.9994           0
         5 CLST     2        TIP3     H1       HT        0.00000       1.00800           0
         6 CLST     2        TIP3     H2       HT        0.00000       1.00800           0
         7 CLST     3        TIP3     OH2      OT        0.00000       15.9994           0
         8 CLST     3        TIP3     H1       HT        0.00000       1.00800           0
         9 CLST     3        TIP3     H2       HT        0.00000       1.00800           0
        10 CLST     4        TIP3     OH2      OT        0.00000       15.9994           0
        11 CLST     4        TIP3     H1       HT        0.00000       1.00800           0
        12 CLST     4        TIP3     H2       HT        0.00000       1.00800           0
        13 CLST     5        TIP3     OH2      OT        0.00000       15.9994           0
        14 CLST     5        TIP3     H1       HT        0.00000       1.00800           0
        15 CLST     5        TIP3     H2       HT        0.00000       1.00800           0
        16 CLST     6        TIP3     OH2      OT        0.00000       15.9994           0
        17 CLST     6        TIP3     H1       HT        0.00000       1.00800           0
        18 CLST     6        TIP3     H2       HT        0.00000       1.00800           0
        19 CLST     7        TIP3     OH2      OT        0.00000       15.9994           0
        20 CLST     7        TIP3     H1       HT        0.00000       1.00800           0
        21 CLST     7        TIP3     H2       HT        0.00000       1.00800           0
        22 CLST     8        TIP3     OH2      OT        0.00000       15.9994           0
        23 CLST     8        TIP3     H1       HT        0.00000       1.00800           0
        24 CLST     8        TIP3     H2       HT        0.00000       1.00800           0
        25 CLST     9        TIP3     OH2      OT        0.00000       15.9994           0
        26 CLST     9        TIP3     H1       HT        0.00000       1.00800           0
        27 CLST     9        TIP3     H2       HT        0.00000       1.00800           0
        28 CLST     10       TIP3     OH2      OT        0.00000       15.9994           0
        29 CLST     10       TIP3     H1       HT        0.00000       1.00800           0
        30 CLST     10       TIP3     H2       HT        0.00000       1.00800           0
        31 CLST     11       TIP3     OH2      OT        0.00000       15.9994           0
        32 CLST     11       TIP3     H1       HT        0.00000       1.00800           0
        33 CLST     11       TIP3     H2       HT        0.00000       1.00800           0
        34 CLST     12       TIP3     OH2      OT        0.00000       15.9994           0
        35 CLST     12       TIP3     H1       HT        0.00000       1.00800           0
        36 CLST     12       TIP3     H2       HT        0.00000       1.00800           0
        37 CLST     13       TIP3     OH2      OT        0.00000       15.9994           0
        38 CLST     13       TIP3     H1       HT        0.00000       1.00800           0
        39 CLST     13       TIP3     H2       HT        0.00000       1.00800           0
        40 CLST     14       TIP3     OH2      OT        0.00000       15.9994           0
        41 CLST     14       TIP3     H1       HT        0.00000       1.00800           0
        42 CLST     14       TIP3     H2       HT        0.00000       1.00800           0
        43 CLST     15       TIP3     OH2      OT        0.00000       15.9994           0
        44 CLST     15       TIP3     H1       HT        0.00000       1.00800           0
        45 CLST     15       TIP3     H2       HT        0.00000       1.00800           0
        46 CLST     16       TIP3     OH2      OT        0.00000       15.9994           0
        47 CLST     16       TIP3     H1       HT        0.00000       1.00800           0
        48 CLST     16       TIP3     H2       HT        0.00000       1.00800           0
        49 CLST     17       TIP3     OH2      OT        0.00000       15.9994           0
        50 CLST     17       TIP3     H1       HT        0.00000       1.00800           0
        51 CLST     17       TIP3     H2       HT        0.00000       1.00800           0
        52 CLST     18       TIP3     OH2      OT        0.00000       15.9994           0
        53 CLST     18       TIP3     H1       HT        0.00000       1.00800           0
        54 CLST     18       TIP3     H2       HT        0.00000       1.00800           0
        55 CLST     19       TIP3     OH2      OT        0.00000       15.9994           0
        56 CLST     19       TIP3     H1       HT        0.00000       1.00800           0
        57 CLST     19       TIP3     H2       HT        0.00000       1.00800           0
        58 CLST     20       TIP3     OH2      OT        0.00000       15.9994           0
        59 CLST     20       TIP3     H1       HT        0.00000       1.00800           0
        60 CLST     20       TIP3     H2       HT        0.00000       1.00800           0
        61 CLST     21       TIP3     OH2      OT        0.00000       15.9994           0
        62 CLST     21       TIP3     H1       HT        0.00000       1.00800           0
        63 CLST     21       TIP3     H2       HT        0.00000       1.00800           0
        64 CLST     22       TIP3     OH2      OT        0.00000       15.9994           0
        65 CLST     22       TIP3     H1       HT        0.00000       1.00800           0
        66 CLST     22       TIP3     H2       HT        0.00000       1.00800           0
        67 CLST     23       TIP3     OH2      OT        0.00000       15.9994           0
        68 CLST     23       TIP3     H1       HT        0.00000       1.00800           0
        69 CLST     23       TIP3     H2       HT        0.00000       1.00800           0
        70 CLST     24       TIP3     OH2      OT        0.00000       15.9994           0
        71 CLST     24       TIP3     H1       HT        0.00000       1.00800           0
        72 CLST     24       TIP3     H2       HT        0.00000       1.00800           0
        73 CLST     25       TIP3     OH2      OT        0.00000       15.9994           0
        74 CLST     25       TIP3     H1       HT        0.00000       1.00800           0
        75 CLST     25       TIP3     H2       HT        0.00000       1.00800           0
        76 CLST     26       TIP3     OH2      OT        0.00000       15.9994           0
        77 CLST     26       TIP3     H1       HT        0.00000       1.00800           0
        78 CLST     26       TIP3     H2       HT        0.00000       1.00800           0
        79 CLST     27       TIP3     OH2      OT        0.00000       15.9994           0
        80 CLST     27       TIP3     H1       HT        0.00000       1.00800           0
        81 CLST     27       TIP3     H2       HT        0.00000       1.00800           0
        82 CLST     28       TIP3     OH2      OT        0.00000       15.9994           0
        83 CLST     28       TIP3     H1       HT        0.00000       1.00800           0
        84 CLST     28       TIP3     H2       HT        0.00000       1.00800           0
        85 CLST     29       TIP3     OH2      OT        0.00000       15.9994           0
        86 CLST     29       TIP3     H1       HT        0.00000       1.00800           0
        87 CLST     29       TIP3     H2       HT        0.00000       1.00800           0
        88 CLST     30       TIP3     OH2      OT        0.00000       15.9994           0
        89 CLST     30       TIP3     H1       HT        0.00000       1.00800           0
        90 CLST     30       TIP3     H2       HT        0.00000       1.00800           0
        91 CLST     31       TIP3     OH2      OT        0.00000       15.9994           0
        92 CLST     31       TIP3     H1       HT        0.00000       1.00800           0
        93 CLST     31       TIP3     H2       HT        0.00000       1.00800           0
        94 CLST     32       TIP3     OH2      OT        0.00000       15.9994           0
        95 CLST     32       TIP3     H1       HT        0.00000       1.00800           0
        96 CLST     32       TIP3     H2       HT        0.00000       1.00800           0
        97 CLST     33       TIP3     OH2      OT        0.00000       15.9994           0
        98 CLST     33       TIP3     H1       HT        0.00000       1.00800           0
        99 CLST     33       TIP3     H2       HT        0.00000       1.00800           0
       100 CLST     34       TIP3     OH2      OT        0.00000       15.9994           0
       101 CLST     34       TIP3     H1       HT        0.00000       1.00800           0
       102 CLST     34       TIP3     H2       HT        0.00000       1.00800           0
       103 CLST     35       TIP3     OH2      OT        0.00000       15.9994           0
       104 CLST     35       TIP3     H1       HT        0.00000       1.00800           0
       105 CLST     35       TIP3     H2       HT        0.00000       1.00800           0
       106 CLST     36       TIP3     OH2      OT        0.00000       15.9994           0
       107 CLST     36       TIP3     H1       HT        0.00000       1.00800           0
       108 CLST     36       TIP3     H2       HT        0.00000       1.00800           0
       109 CLST     37       TIP3     OH2      OT        0.00000       15.9994           0
       110 CLST     37       TIP3     H1       HT        0.00000       1.00800           0
       111 CLST     37       TIP3     H2       HT        0.00000       1.00800           0
       112 CLST     38       TIP3     OH2      OT        0.00000       15.9994           0
       113 CLST     38       TIP3     H1       HT        0.00000       1.00800           0
       114 CLST     38       TIP3     H2       HT        0.00000       1.00800           0
       115 CLST     39       TIP3     OH2      OT        0.00000       15.9994           0
       116 CLST     39       TIP3     H1       HT        0.00000       1.00800           0
       117 CLST     39       TIP3     H2       HT        0.00000       1.00800           0
       118 CLST     40       TIP3     OH2      OT        0.00000       15.9994           0
       119 CLST     40       TIP3     H1       HT        0.00000       1.00800           0
       120 CLST     40       TIP3     H2       HT        0.00000       1.00800           0
       121 CLST     41       TIP3     OH2      OT        0.00000       15.9994           0
       122 CLST     41       TIP3     H1       HT        0.00000       1.00800           0
       123 CLST     41       TIP3     H2       HT        0.00000       1.00800           0
       124 CLST     42       TIP3     OH2      OT        0.00000       15.9994           0
       125 CLST     42       TIP3     H1       HT        0.00000       1.00800           0
       126 CLST     42       TIP3     H2       HT        0.00000       1.00800           0
       127 CLST     43       TIP3     OH2      OT        0.00000       15.9994           0
       128 CLST     43       TIP3     H1       HT        0.00000       1.00800           0
       129 CLST     43       TIP3     H2       HT        0.00000       1.00800           0
       130 CLST     44       TIP3     OH2      OT        0.00000       15.9994           0
       131 CLST     44       TIP3     H1       HT        0.00000       1.00800           0
       132 CLST     44       TIP3     H2       HT        0.00000       1.00800           0
       133 CLST     45       TIP3     OH2      OT        0.00000       15.9994           0
       134 CLST     45       TIP3     H1       HT        0.00000       1.00800           0
       135 CLST     45       TIP3     H2       HT        0.00000       1.00800           0
       136 CLST     46       TIP3     OH2      OT        0.00000       15.9994           0
       137 CLST     46       TIP3     H1       HT        0.00000       1.00800           0
       138 CLST     46       TIP3     H2       HT        0.00000       1.00800           0
       139 CLST     47       TIP3     OH2      OT        0.00000       15.9994           0
       140 CLST     47       TIP3     H1       HT        0.00000       1.00800           0
       141 CLST     47       TIP3     H2       HT        0.00000       1.00800           0
       142 CLST     48       TIP3     OH2      OT        0.00000       15.9994           0
       143 CLST     48       TIP3     H1       HT        0.00000       1.00800           0
       144 CLST     48       TIP3     H2       HT        0.00000       1.00800           0
       145 CLST     49       TIP3     OH2      OT        0.00000       15.9994           0
       146 CLST     49       TIP3     H1       HT        0.00000       1.00800           0
       147 CLST     49       TIP3     H2       HT        0.00000       1.00800           0
       148 CLST     50       TIP3     OH2      OT        0.00000       15.9994           0
       149 CLST     50       TIP3     H1       HT        0.00000       1.00800           0
       150 CLST     50       TIP3     H2       HT        0.00000       1.00800           0
       151 CLST     51       TIP3     OH2      OT        0.00000       15.9994           0
       152 CLST     51       TIP3     H1       HT        0.00000       1.00800           0
       153 CLST     51       TIP3     H2       HT        0.00000       1.00800           0
       154 CLST     52       TIP3     OH2      OT        0.00000       15.9994           0
       155 CLST     52       TIP3     H1       HT        0.00000       1.00800           0
       156 CLST     52       TIP3     H2       HT        0.00000       1.00800           0
       157 CLST     53       TIP3     OH2      OT        0.00000       15.9994           0
       158 CLST     53       TIP3     H1       HT        0.00000       1.00800           0
       159 CLST     53       TIP3     H2       HT        0.00000       1.00800           0
       160 CLST     54       TIP3     OH2      OT        0.00000       15.9994           0
       161 CLST     54       TIP3     H1       HT        0.00000       1.00800           0
       162 CLST     54       TIP3     H2       HT        0.00000       1.00800           0
       163 CLST     55       TIP3     OH2      OT        0.00000       15.9994           0
       164 CLST     55       TIP3     H1       HT        0.00000       1.00800           0
       165 CLST     55       TIP3     H2       HT        0.00000       1.00800           0
       166 CLST     56       TIP3     OH2      OT        0.00000       15.9994           0
       167 CLST     56       TIP3     H1       HT        0.00000       1.00800           0
       168 CLST     56       TIP3     H2       HT        0.00000       1.00800           0
       169 CLST     57       TIP3     OH2      OT        0.00000       15.9994           0
       170 CLST     57       TIP3     H1       HT        0.00000       1.00800           0
       171 CLST     57       TIP3     H2       HT        0.00000       1.00800           0
       172 CLST     58       TIP3     OH2      OT        0.00000       15.9994           0
       173 CLST     58       TIP3     H1       HT        0.00000       1.00800           0
       174 CLST     58       TIP3     H2       HT        0.00000       1.00800           0
       175 CLST     59       TIP3     OH2      OT        0.00000       15.9994           0
       176 CLST     59       TIP3     H1       HT        0.00000       1.00800           0
       177 CLST     59       TIP3     H2       HT        0.00000       1.00800           0
       178 CLST     60       TIP3     OH2      OT        0.00000       15.9994           0
       179 CLST     60       TIP3     H1       HT        0.00000       1.00800           0
       180 CLST     60       TIP3     H2       HT        0.00000       1.00800           0
       181 CLST     61       TIP3     OH2      OT        0.00000       15.9994           0
       182 CLST     61       TIP3     H1       HT        0.00000       1.00800           0
       183 CLST     61       TIP3     H2       HT        0.00000       1.00800           0
       184 CLST     62       TIP3     OH2      OT        0.00000       15.9994           0
       185 CLST     62       TIP3     H1       HT        0.00000       1.00800           0
       186 CLST     62       TIP3     H2       HT        0.00000       1.00800           0
       187 CLST     63       TIP3     OH2      OT        0.00000       15.9994           0
       188 CLST     63       TIP3     H1       HT        0.00000       1.00800           0
       189 CLST     63       TIP3     H2       HT        0.00000       1.00800           0
       190 CLST     64       TIP3     OH2      OT        0.00000       15.9994           0
       191 CLST     64       TIP3     H1       HT        0.00000       1.00800           0
       192 CLST     64       TIP3     H2       HT        0.00000       1.00800           0
       193 CLST     65       TIP3     OH2      OT        0.00000       15.9994           0
       194 CLST     65       TIP3     H1       HT        0.00000       1.00800           0
       195 CLST     65       TIP3     H2       HT        0.00000       1.00800           0
       196 CLST     66       TIP3     OH2      OT        0.00000       15.9994           0
       197 CLST     66       TIP3     H1       HT        0.00000       1.00800           0
       198 CLST     66       TIP3     H2       HT        0.00000       1.00800           0
       199 CLST     67       TIP3     OH2      OT        0.00000       15.9994           0
       200 CLST     67       TIP3     H1       HT        0.00000       1.00800           0
       201 CLST     67       TIP3     H2       HT        0.00000       1.00800           0
       202 CLST     68       TIP3     OH2      OT        0.00000       15.9994           0
       203 CLST     68       TIP3     H1       HT        0.00000       1.00800           0
       204 CLST     68       TIP3     H2       HT        0.00000       1.00800           0
       205 CLST     69       TIP3     OH2      OT        0.00000       15.9994           0
       206 CLST     69       TIP3     H1       HT        0.00000       1.00800           0
       207 CLST     69       TIP3     H2       HT        0.00000       1.00800           0
       208 CLST     70       TIP3     OH2      OT        0.00000       15.9994           0
       209 CLST     70       TIP3     H1       HT        0.00000       1.00800           0
       210 CLST     70       TIP3     H2       HT        0.00000       1.00800           0
       211 CLST     71       TIP3     OH2      OT        0.00000       15.9994           0
       212 CLST     71       TIP3     H1       HT        0.00000       1.00800           0
       213 CLST     71       TIP3     H2       HT        0.00000       1.00800           0
       214 CLST     72       TIP3     OH2      OT        0.00000       15.9994           0
       215 CLST     72       TIP3     H1       HT        0.00000       1.00800           0
       216 CLST     72       TIP3     H2       HT        0.00000       1.00800           0
       217 CLST     73       TIP3     OH2      OT        0.00000       15.9994           0
       218 CLST     73       TIP3     H1       HT        0.00000       1.00800           0
       219 CLST     73       TIP3     H2       HT        0.00000       1.00800           0
       220 CLST     74       TIP3     OH2      OT        0.00000       15.9994           0
       221 CLST     74       TIP3     H1       HT        0.00000       1.00800           0
       222 CLST     74       TIP3     H2       HT        0.00000       1.00800           0
       223 CLST     75       TIP3     OH2      OT        0.00000       15.9994           0
       224 CLST     75       TIP3     H1       HT        0.00000       1.00800           0
       225 CLST     75       TIP3     H2       HT        0.00000       1.00800           0
       226 CLST     76       TIP3     OH2      OT        0.00000       15.9994           0
       227 CLST     76       TIP3     H1       HT        0.00000       1.00800           0
       228 CLST     76       TIP3     H2       HT        0.00000       1.00800           0
       229 CLST     77       TIP3     OH2      OT        0.00000       15.9994           0
       230 CLST     77       TIP3     H1       HT        0.00000       1.00800           0
       231 CLST     77       TIP3     H2       HT        0.00000       1.00800           0
       232 CLST     78       TIP3     OH2      OT        0.00000       15.9994           0
       233 CLST     78       TIP3     H1       HT        0.00000       1.00800           0
       234 CLST     78       TIP3     H2       HT        0.00000       1.00800           0
       235 CLST     79       TIP3     OH2      OT        0.00000       15.9994           0
       236 CLST     79       TIP3     H1       HT        0.00000       1.00800           0
       237 CLST     79       TIP3     H2       HT        0.00000       1.00800           0
       238 CLST     80       TIP3     OH2      OT        0.00000       15.9994           0
       239 CLST     80       TIP3     H1       HT        0.00000       1.00800           0
       240 CLST     80       TIP3     H2       HT        0.00000       1.00800           0
       241 CLST     81       TIP3     OH2      OT        0.00000       15.9994           0
       242 CLST     81       TIP3     H1       HT        0.00000       1.00800           0
       243 CLST     81       TIP3     H2       HT        0.00000       1.00800           0
       244 CLST     82       TIP3     OH2      OT        0.00000       15.9994           0
       245 CLST     82       TIP3     H1       HT        0.00000       1.00800           0
       246 CLST     82       TIP3     H2       HT        0.00000       1.00800           0
       247 CLST     83       TIP3     OH2      OT        0.00000       15.9994           0
       248 CLST     83       TIP3     H1       HT        0.00000       1.00800           0
       249 CLST     83       TIP3     H2       HT        0.00000       1.00800           0
       250 CLST     84       TIP3     OH2      OT        0.00000       15.9994           0
       251 CLST     84       TIP3     H1       HT        0.00000       1.00800           0
       252 CLST     84       TIP3     H2       HT        0.00000       1.00800           0
       253 CLST     85       TIP3     OH2      OT        0.00000       15.9994           0
       254 CLST     85       TIP3     H1       HT        0.00000       1.00800           0
       255 CLST     85       TIP3     H2       HT        0.00000       1.00800           0
       256 CLST     86       TIP3     OH2      OT        0.00000       15.9994           0
       257 CLST     86       TIP3     H1       HT        0.00000       1.00800           0
       258 CLST     86       TIP3     H2       HT        0.00000       1.00800           0
       259 CLST     87       TIP3     OH2      OT        0.00000       15.9994           0
       260 CLST     87       TIP3     H1       HT        0.00000       1.00800           0
       261 CLST     87       TIP3     H2       HT        0.00000       1.00800           0
       262 CLST     88       TIP3     OH2      OT        0.00000       15.9994           0
       263 CLST     88       TIP3     H1       HT        0.00000       1.00800           0
       264 CLST     88       TIP3     H2       HT        0.00000       1.00800           0
       265 CLST     89       TIP3     OH2      OT        0.00000       15.9994           0
       266 CLST     89       TIP3     H1       HT        0.00000       1.00800           0
       267 CLST     89       TIP3     H2       HT        0.00000       1.00800           0
       268 CLST     90       TIP3     OH2      OT        0.00000       15.9994           0
       269 CLST     90       TIP3     H1       HT        0.00000       1.00800           0
       270 CLST     90       TIP3     H2       HT        0.00000       1.00800           0
       271 CLST     91       TIP3     OH2      OT        0.00000       15.9994           0
       272 CLST     91       TIP3     H1       HT        0.00000       1.00800           0
       273 CLST     91       TIP3     H2       HT        0.00000       1.00800           0
       274 CLST     92       TIP3     OH2      OT        0.00000       15.9994           0
       275 CLST     92       TIP3     H1       HT        0.00000       1.00800           0
       276 CLST     92       TIP3     H2       HT        0.00000       1.00800           0
       277 CLST     93       TIP3     OH2      OT        0.00000       15.9994           0
       278 CLST     93       TIP3     H1       HT        0.00000       1.00800           0
       279 CLST     93       TIP3     H2       HT        0.00000       1.00800           0
       280 CLST     94       TIP3     OH2      OT        0.00000       15.9994           0
       281 CLST     94       TIP3     H1       HT        0.00000       1.00800           0
       282 CLST     94       TIP3     H2       HT        0.00000       1.00800           0
       283 CLST     95       TIP3     OH2      OT        0.00000       15.9994           0
       284 CLST     95       TIP3     H1       HT        0.00000       1.00800           0
       285 CLST     95       TIP3     H2       HT        0.00000       1.00800           0
       286 CLST     96       TIP3     OH2      OT        0.00000       15.9994           0
       287 CLST     96       TIP3     H1       HT        0.00000       1.00800           0
       288 CLST     96       TIP3     H2       HT        0.00000       1.00800           0
       289 CLST     97       TIP3     OH2      OT        0.00000       15.9994           0
       290 CLST     97       TIP3     H1       HT        0.00000       1.00800           0
       291 CLST     97       TIP3     H2       HT        0.00000       1.00800           0
       292 CLST     98       TIP3     OH2      OT        0.00000       15.9994           0
       293 CLST     98       TIP3     H1       HT        0.00000       1.00800           0
       294 CLST     98       TIP3     H2       HT        0.00000       1.00800           0
       295 CLST     99       TIP3     OH2      OT        0.00000       15.9994           0
       296 CLST     99       TIP3     H1       HT        0.00000       1.00800           0
       297 CLST     99       TIP3     H2       HT        0.00000       1.00800           0
       298 CLST     100      TIP3     OH2      OT        0.00000       15.9994           0
       299 CLST     100      TIP3     H1       HT        0.00000       1.00800           0
       300 CLST     100      TIP3     H2       HT        0.00000       1.00800           0
       301 CLST     101      TIP3     OH2      OT        0.00000       15.9994           0
       302 CLST     101      TIP3     H1       HT        0.00000       1.00800           0
       303 CLST     101      TIP3     H2       HT        0.00000       1.00800           0
       304 CLST     102      TIP3     OH2      OT        0.00000       15.9994           0
       305 CLST     102      TIP3     H1       HT        0.00000       1.00800           0
       306 CLST     102      TIP3     H2       HT        0.00000       1.00800           0
       307 CLST     103      TIP3     OH2      OT        0.00000       15.9994           0
       308 CLST     103      TIP3     H1       HT        0.00000       1.00800           0
       309 CLST     103      TIP3     H2       HT        0.00000       1.00800           0
       310 CLST     104      TIP3     OH2      OT        0.00000       15.9994           0
       311 CLST     104      TIP3     H1       HT        0.00000       1.00800           0
       312 CLST     104      TIP3     H2       HT        0.00000       1.00800           0
       313 CLST     105      TIP3     OH2      OT        0.00000       15.9994           0
       314 CLST     105      TIP3     H1       HT        0.00000       1.00800           0
       315 CLST     105      TIP3     H2       HT        0.00000       1.00800           0
       316 CLST     106      TIP3     OH2      OT        0.00000       15.9994           0
       317 CLST     106      TIP3     H1       HT        0.00000       1.00800           0
       318 CLST     106      TIP3     H2       HT        0.00000       1.00800           0
       319 CLST     107      TIP3     OH2      OT        0.00000       15.9994           0
       320 CLST     107      TIP3     H1       HT        0.00000       1.00800           0
       321 CLST     107      TIP3     H2       HT        0.00000       1.00800           0
       322 CLST     108      TIP3     OH2      OT        0.00000       15.9994           0
       323 CLST     108      TIP3     H1       HT        0.00000       1.00800           0
       324 CLST     108      TIP3     H2       HT        0.00000       1.00800           0
       325 CLST     109      TIP3     OH2      OT        0.00000       15.9994           0
       326 CLST     109      TIP3     H1       HT        0.00000       1.00800           0
       327 CLST     109      TIP3     H2       HT        0.00000       1.00800           0
       328 CLST     110      TIP3     OH2      OT        0.00000       15.9994           0
       329 CLST     110      TIP3     H1       HT        0.00000       1.00800           0
       330 CLST     110      TIP3     H2       HT        0.00000       1.00800           0
       331 CLST     111      TIP3     OH2      OT        0.00000       15.9994           0
       332 CLST     111      TIP3     H1       HT        0.00000       1.00800           0
       333 CLST     111      TIP3     H2       HT        0.00000       1.00800           0
       334 CLST     112      TIP3     OH2      OT        0.00000       15.9994           0
       335 CLST     112      TIP3     H1       HT        0.00000       1.00800           0
       336 CLST     112      TIP3     H2       HT        0.00000       1.00800           0
       337 CLST     113      TIP3     OH2      OT        0.00000       15.9994           0
       338 CLST     113      TIP3     H1       HT        0.00000       1.00800           0
       339 CLST     113      TIP3     H2       HT        0.00000       1.00800           0
       340 CLST     114      TIP3     OH2      OT        0.00000       15.9994           0
       341 CLST     114      TIP3     H1       HT        0.00000       1.00800           0
       342 CLST     114      TIP3     H2       HT        0.00000       1.00800           0
       343 CLST     115      TIP3     OH2      OT        0.00000       15.9994           0
       344 CLST     115      TIP3     H1       HT        0.00000       1.00800           0
       345 CLST     115      TIP3     H2       HT        0.00000       1.00800           0
       346 CLST     116      TIP3     OH2      OT        0.00000       15.9994           0
       347 CLST     116      TIP3     H1       HT        0.00000       1.00800           0
       348 CLST     116      TIP3     H2       HT        0.00000       1.00800           0
       349 CLST     117      TIP3     OH2      OT        0.00000       15.9994           0
       350 CLST     117      TIP3     H1       HT        0.00000       1.00800           0
       351 CLST     117      TIP3     H2       HT        0.00000       1.00800           0
       352 CLST     118      TIP3     OH2      OT        0.00000       15.9994           0
       353 CLST     118      TIP3     H1       HT        0.00000       1.00800           0
       354 CLST     118      TIP3     H2       HT        0.00000       1.00800           0
       355 CLST     119      TIP3     OH2      OT        0.00000       15.9994           0
       356 CLST     119      TIP3     H1       HT        0.00000       1.00800           0
       357 CLST     119      TIP3     H2       HT        0.00000       1.00800           0
       358 CLST     120      TIP3     OH2      OT        0.00000       15.9994           0
       359 CLST     120      TIP3     H1       HT        0.00000       1.00800           0
       360 CLST     120      TIP3     H2       HT        0.00000       1.00800           0
       361 CLST     121      TIP3     OH2      OT        0.00000       15.9994           0
       362 CLST     121      TIP3     H1       HT        0.00000       1.00800           0
       363 CLST     121      TIP3     H2       HT        0.00000       1.00800           0
       364 CLST     122      TIP3     OH2      OT        0.00000       15.9994           0
       365 CLST     122      TIP3     H1       HT        0.00000       1.00800           0
       366 CLST     122      TIP3     H2       HT        0.00000       1.00800           0
       367 CLST     123      TIP3     OH2      OT        0.00000       15.9994           0
       368 CLST     123      TIP3     H1       HT        0.00000       1.00800           0
       369 CLST     123      TIP3     H2       HT        0.00000       1.00800           0
       370 CLST     124      TIP3     OH2      OT        0.00000       15.9994           0
       371 CLST     124      TIP3     H1       HT        0.00000       1.00800           0
       372 CLST     124      TIP3     H2       HT        0.00000       1.00800           0
       373 CLST     125      TIP3     OH2      OT        0.00000       15.9994           0
       374 CLST     125      TIP3     H1       HT        0.00000       1.00800           0
       375 CLST     125      TIP3     H2       HT        0.00000       1.00800           0
       376 CLST     126      TIP3     OH2      OT        0.00000       15.9994           0
       377 CLST     126      TIP3     H1       HT        0.00000       1.00800           0
       378 CLST     126      TIP3     H2       HT        0.00000       1.00800           0
       379 CLST     127      TIP3     OH2      OT        0.00000       15.9994           0
       380 CLST     127      TIP3     H1       HT        0.00000       1.00800           0
       381 CLST     127      TIP3     H2       HT        0.00000       1.00800           0
       382 CLST     128      TIP3     OH2      OT        0.00000       15.9994           0
       383 CLST     128      TIP3     H1       HT        0.00000       1.00800           0
       384 CLST     128      TIP3     H2       HT        0.00000       1.00800           0
       385 CLST     129      TIP3     OH2      OT        0.00000       15.9994           0
       386 CLST     129      TIP3     H1       HT        0.00000       1.00800           0
       387 CLST     129      TIP3     H2       HT        0.00000       1.00800           0
       388 CLST     130      TIP3     OH2      OT        0.00000       15.9994           0
       389 CLST     130      TIP3     H1       HT        0.00000       1.00800           0
       390 CLST     130      TIP3     H2       HT        0.00000       1.00800           0
       391 CLST     131      TIP3     OH2      OT        0.00000       15.9994           0
       392 CLST     131      TIP3     H1       HT        0.00000       1.00800           0
       393 CLST     131      TIP3     H2       HT        0.00000       1.00800           0
       394 CLST     132      TIP3     OH2      OT        0.00000       15.9994           0
       395 CLST     132      TIP3     H1       HT        0.00000       1.00800           0
       396 CLST     132      TIP3     H2       HT        0.00000       1.00800           0
       397 CLST     133      TIP3     OH2      OT        0.00000       15.9994           0
       398 CLST     133      TIP3     H1       HT        0.00000       1.00800           0
       399 CLST     133      TIP3     H2       HT        0.00000       1.00800           0
       400 CLST     134      TIP3     OH2      OT        0.00000       15.9994           0
       401 CLST     134      TIP3     H1       HT        0.00000       1.00800           0
       402 CLST     134      TIP3     H2       HT        0.00000       1.00800           0
       403 CLST     135      TIP3     OH2      OT        0.00000       15.9994           0
       404 CLST     135      TIP3     H1       HT        0.00000       1.00800           0
       405 CLST     135      TIP3     H2       HT        0.00000       1.00800           0
       406 CLST     136      TIP3     OH2      OT        0.00000       15.9994           0
       407 CLST     136      TIP3     H1       HT        0.00000       1.00800           0
       408 CLST     136      TIP3     H2       HT        0.00000       1.00800           0
       409 CLST     137      TIP3     OH2      OT        0.00000       15.9994           0
       410 CLST     137      TIP3     H1       HT        0.00000       1.00800           0
       411 CLST     137      TIP3     H2       HT        0.00000       1.00800           0
       412 CLST     138      TIP3     OH2      OT        0.00000       15.9994           0
       413 CLST     138      TIP3     H1       HT        0.00000       1.00800           0
       414 CLST     138      TIP3     H2       HT        0.00000       1.00800           0
       415 CLST     139      TIP3     OH2      OT        0.00000       15.9994           0
       416 CLST     139      TIP3     H1       HT        0.00000       1.00800           0
       417 CLST     139      TIP3     H2       HT        0.00000       1.00800           0
       418 CLST     140      TIP3     OH2      OT        0.00000       15.9994           0
       419 CLST     140      TIP3     H1       HT        0.00000       1.00800           0
       420 CLST     140      TIP3     H2       HT        0.00000       1.00800           0
       421 CLST     141      TIP3     OH2      OT        0.00000       15.9994           0
       422 CLST     141      TIP3     H1       HT        0.00000       1.00800           0
       423 CLST     141      TIP3     H2       HT        0.00000       1.00800           0
       424 CLST     142      TIP3     OH2      OT        0.00000       15.9994           0
       425 CLST     142      TIP3     H1       HT        0.00000       1.00800           0
       426 CLST     142      TIP3     H2       HT        0.00000       1.00800           0
       427 CLST     143      TIP3     OH2      OT        0.00000       15.9994           0
       428 CLST     143      TIP3     H1       HT        0.00000       1.00800           0
       429 CLST     143      TIP3     H2       HT        0.00000       1.00800           0
       430 CLST     144      TIP3     OH2      OT        0.00000       15.9994           0
       431 CLST     144      TIP3     H1       HT        0.00000       1.00800           0
       432 CLST     144      TIP3     H2       HT        0.00000       1.00800           0
       433 CLST     145      TIP3     OH2      OT        0.00000       15.9994           0
       434 CLST     145      TIP3     H1       HT        0.00000       1.00800           0
       435 CLST     145      TIP3     H2       HT        0.00000       1.00800           0
       436 CLST     146      TIP3     OH2      OT        0.00000       15.9994           0
       437 CLST     146      TIP3     H1       HT        0.00000       1.00800           0
       438 CLST     146      TIP3     H2       HT        0.00000       1.00800           0
       439 CLST     147      TIP3     OH2      OT        0.00000       15.9994           0
       440 CLST     147      TIP3     H1       HT        0.00000       1.00800           0
       441 CLST     147      TIP3     H2       HT        0.00000       1.00800           0
       442 CLST     148      TIP3     OH2      OT        0.00000       15.9994           0
       443 CLST     148      TIP3     H1       HT        0.00000       1.00800           0
       444 CLST     148      TIP3     H2       HT        0.00000       1.00800           0
       445 CLST     149      TIP3     OH2      OT        0.00000       15.9994           0
       446 CLST     149      TIP3     H1       HT        0.00000       1.00800           0
       447 CLST     149      TIP3     H2       HT        0.00000       1.00800           0
       448 CLST     150      TIP3     OH2      OT        0.00000       15.9994           0
       449 CLST     150      TIP3     H1       HT        0.00000       1.00800           0
       450 CLST     150      TIP3     H2       HT        0.00000       1.00800           0
       451 CLST     151      TIP3     OH2      OT        0.00000       15.9994           0
       452 CLST     151      TIP3     H1       HT        0.00000       1.00800           0
       453 CLST     151      TIP3     H2       HT        0.00000       1.00800           0
       454 CLST     152      TIP3     OH2      OT        0.00000       15.9994           0
       455 CLST     152      TIP3     H1       HT        0.00000       1.00800           0
       456 CLST     152      TIP3     H2       HT        0.00000       1.00800           0
       457 CLST     153      TIP3     OH2      OT        0.00000       15.9994           0
       458 CLST     153      TIP3     H1       HT        0.00000       1.00800           0
       459 CLST     153      TIP3     H2       HT        0.00000       1.00800           0
       460 CLST     154      TIP3     OH2      OT        0.00000       15.9994           0
       461 CLST     154      TIP3     H1       HT        0.00000       1.00800           0
       462 CLST     154      TIP3     H2       HT        0.00000       1.00800           0
       463 CLST     155      TIP3     OH2      OT        0.00000       15.9994           0
       464 CLST     155      TIP3     H1       HT        0.00000       1.00800           0
       465 CLST     155      TIP3     H2       HT        0.00000       1.00800           0
       466 CLST     156      TIP3     OH2      OT        0.00000       15.9994           0
       467 CLST     156      TIP3     H1       HT        0.00000       1.00800           0
       468 CLST     156      TIP3     H2       HT        0.00000       1.00800           0
       469 CLST     157      TIP3     OH2      OT        0.00000       15.9994           0
       470 CLST     157      TIP3     H1       HT        0.00000       1.00800           0
       471 CLST     157      TIP3     H2       HT        0.00000       1.00800           0
       472 CLST     158      TIP3     OH2      OT        0.00000       15.9994           0
       473 CLST     158      TIP3     H1       HT        0.00000       1.00800           0
       474 CLST     158      TIP3     H2       HT        0.00000       1.00800           0
       475 CLST     159      TIP3     OH2      OT        0.00000       15.9994           0
       476 CLST     159      TIP3     H1       HT        0.00000       1.00800           0
       477 CLST     159      TIP3     H2       HT        0.00000       1.00800           0
       478 CLST     160      TIP3     OH2      OT        0.00000       15.9994           0
       479 CLST     160      TIP3     H1       HT        0.00000       1.00800           0
       480 CLST     160      TIP3     H2       HT        0.00000       1.00800           0
       481 CLST     161      TIP3     OH2      OT        0.00000       15.9994           0
       482 CLST     161      TIP3     H1       HT        0.00000       1.00800           0
       483 CLST     161      TIP3     H2       HT        0.00000       1.00800           0
       484 CLST     162      TIP3     OH2      OT        0.00000       15.9994           0
       485 CLST     162      TIP3     H1       HT        0.00000       1.00800           0
       486 CLST     162      TIP3     H2       HT        0.00000       1.00800           0
       487 CLST     163      TIP3     OH2      OT        0.00000       15.9994           0
       488 CLST     163      TIP3     H1       HT        0.00000       1.00800           0
       489 CLST     163      TIP3     H2       HT        0.00000       1.00800           0
       490 CLST     164      TIP3     OH2      OT        0.00000       15.9994           0
       491 CLST     164      TIP3     H1       HT        0.00000       1.00800           0
       492 CLST     164      TIP3     H2       HT        0.00000       1.00800           0
       493 CLST     165      TIP3     OH2      OT        0.00000       15.9994           0
       494 CLST     165      TIP3     H1       HT        0.00000       1.00800           0
       495 CLST     165      TIP3     H2       HT        0.00000       1.00800           0
       496 CLST     166      TIP3     OH2      OT        0.00000       15.9994           0
       497 CLST     166      TIP3     H1       HT        0.00000       1.00800           0
       498 CLST     166      TIP3     H2       HT        0.00000       1.00800           0
       499 CLST     167      TIP3     OH2      OT        0.00000       15.9994           0
       500 CLST     167      TIP3     H1       HT        0.00000       1.00800           0
       501 CLST     167      TIP3     H2       HT        0.00000       1.00800           0
       502 CLST     168      TIP3     OH2      OT        0.00000       15.9994           0
       503 CLST     168      TIP3     H1       HT        0.00000       1.00800           0
       504 CLST     168      TIP3     H2       HT        0.00000       1.00800           0
       505 CLST     169      TIP3     OH2      OT        0.00000       15.9994           0
       506 CLST     169      TIP3     H1       HT        0.00000       1.00800           0
       507 CLST     169      TIP3     H2       HT        0.00000       1.00800           0
       508 CLST     170      TIP3     OH2      OT        0.00000       15.9994           0
       509 CLST     170      TIP3     H1       HT        0.00000       1.00800           0
       510 CLST     170      TIP3     H2       HT        0.00000       1.00800           0
       511 CLST     171      TIP3     OH2      OT        0.00000       15.9994           0
       512 CLST     171      TIP3     H1       HT        0.00000       1.00800           0
       513 CLST     171      TIP3     H2       HT        0.00000       1.00800           0
       514 CLST     172      TIP3     OH2      OT        0.00000       15.9994           0
       515 CLST     172      TIP3     H1       HT        0.00000       1.00800           0
       516 CLST     172      TIP3     H2       HT        0.00000       1.00800           0
       517 CLST     173      TIP3     OH2      OT        0.00000       15.9994           0
       518 CLST     173      TIP3     H1       HT        0.00000       1.00800           0
       519 CLST     173      TIP3     H2       HT        0.00000       1.00800           0
       520 CLST     174      TIP3     OH2      OT        0.00000       15.9994           0
       521 CLST     174      TIP3     H1       HT        0.00000       1.00800           0
       522 CLST     174      TIP3     H2       HT        0.00000       1.00800           0
       523 CLST     175      TIP3     OH2      OT        0.00000       15.9994           0
       524 CLST     175      TIP3     H1       HT        0.00000       1.00800           0
       525 CLST     175      TIP3     H2       HT        0.00000       1.00800           0
       526 CLST     176      TIP3     OH2      OT        0.00000       15.9994           0
       527 CLST     176      TIP3     H1       HT        0.00000       1.00800           0
       528 CLST     176      TIP3     H2       HT        0.00000       1.00800           0
       529 CLST     177      TIP3     OH2      OT        0.00000       15.9994           0
       530 CLST     177      TIP3     H1       HT        0.00000       1.00800           0
       531 CLST     177      TIP3     H2       HT        0.00000       1.00800           0
       532 CLST     178      TIP3     OH2      OT        0.00000       15.9994           0
       533 CLST     178      TIP3     H1       HT        0.00000       1.00800           0
       534 CLST     178      TIP3     H2       HT        0.00000       1.00800           0
       535 CLST     179      TIP3     OH2      OT        0.00000       15.9994           0
       536 CLST     179      TIP3     H1       HT        0.00000       1.00800           0
       537 CLST     179      TIP3     H2       HT        0.00000       1.00800           0
       538 CLST     180      TIP3     OH2      OT        0.00000       15.9994           0
       539 CLST     180      TIP3     H1       HT        0.00000       1.00800           0
       540 CLST     180      TIP3     H2       HT        0.00000       1.00800           0
       541 CLST     181      TIP3     OH2      OT        0.00000       15.9994           0
       542 CLST     181      TIP3     H1       HT        0.00000       1.00800           0
       543 CLST     181      TIP3     H2       HT        0.00000       1.00800           0
       544 CLST     182      TIP3     OH2      OT        0.00000       15.9994           0
       545 CLST     182      TIP3     H1       HT        0.00000       1.00800           0
       546 CLST     182      TIP3     H2       HT        0.00000       1.00800           0
       547 CLST     183      TIP3     OH2      OT        0.00000       15.9994           0
       548 CLST     183      TIP3     H1       HT        0.00000       1.00800           0
       549 CLST     183      TIP3     H2       HT        0.00000       1.00800           0
       550 CLST     184      TIP3     OH2      OT        0.00000       15.9994           0
       551 CLST     184      TIP3     H1       HT        0.00000       1.00800           0
       552 CLST     184      TIP3     H2       HT        0.00000       1.00800           0
       553 CLST     185      TIP3     OH2      OT        0.00000       15.9994           0
       554 CLST     185      TIP3     H1       HT        0.00000       1.00800           0
       555 CLST     185      TIP3     H2       HT        0.00000       1.00800           0
       556 CLST     186      TIP3     OH2      OT        0.00000       15.9994           0
       557 CLST     186      TIP3     H1       HT        0.00000       1.00800           0
       558 CLST     186      TIP3     H2       HT        0.00000       1.00800           0
       559 CLST     187      TIP3     OH2      OT        0.00000       15.9994           0
       560 CLST     187      TIP3     H1       HT        0.00000       1.00800           0
       561 CLST     187      TIP3     H2       HT        0.00000       1.00800           0
       562 CLST     188      TIP3     OH2      OT        0.00000       15.9994           0
       563 CLST     188      TIP3     H1       HT        0.00000       1.00800           0
       564 CLST     188      TIP3     H2       HT        0.00000       1.00800           0
       565 CLST     189      TIP3     OH2      OT        0.00000       15.9994           0
       566 CLST     189      TIP3     H1       HT        0.00000       1.00800           0
       567 CLST     189      TIP3     H2       HT        0.00000       1.00800           0
       568 CLST     190      TIP3     OH2      OT        0.00000       15.9994           0
       569 CLST     190      TIP3     H1       HT        0.00000       1.00800           0
       570 CLST     190      TIP3     H2       HT        0.00000       1.00800           0
       571 CLST     191      TIP3     OH2      OT        0.00000       15.9994           0
       572 CLST     191      TIP3     H1       HT        0.00000       1.00800           0
       573 CLST     191      TIP3     H2       HT        0.00000       1.00800           0
       574 CLST     192      TIP3     OH2      OT        0.00000       15.9994           0
       575 CLST     192      TIP3     H1       HT        0.00000       1.00800           0
       576 CLST     192      TIP3     H2       HT        0.00000       1.00800           0
       577 CLST     193      TIP3     OH2      OT        0.00000       15.9994           0
       578 CLST     193      TIP3     H1       HT        0.00000       1.00800           0
       579 CLST     193      TIP3     H2       HT        0.00000       1.00800           0
       580 CLST     194      TIP3     OH2      OT        0.00000       15.9994           0
       581 CLST     194      TIP3     H1       HT        0.00000       1.00800           0
       582 CLST     194      TIP3     H2       HT        0.00000       1.00800           0
       583 CLST     195      TIP3     OH2      OT        0.00000       15.9994           0
       584 CLST     195      TIP3     H1       HT        0.00000       1.00800           0
       585 CLST     195      TIP3     H2       HT        0.00000       1.00800           0
       586 CLST     196      TIP3     OH2      OT        0.00000       15.9994           0
       587 CLST     196      TIP3     H1       HT        0.00000       1.00800           0
       588 CLST     196      TIP3     H2       HT        0.00000       1.00800           0
       589 CLST     197      TIP3     OH2      OT        0.00000       15.9994           0
       590 CLST     197      TIP3     H1       HT        0.00000       1.00800           0
       591 CLST     197      TIP3     H2       HT        0.00000       1.00800           0
       592 CLST     198      TIP3     OH2      OT        0.00000       15.9994           0
       593 CLST     198      TIP3     H1       HT        0.00000       1.00800           0
       594 CLST     198      TIP3     H2       HT        0.00000       1.00800           0
       595 CLST     199      TIP3     OH2      OT        0.00000       15.9994           0
       596 CLST     199      TIP3     H1       HT        0.00000       1.00800           0
       597 CLST     199      TIP3     H2       HT        0.00000       1.00800           0
       598 CLST     200      TIP3     OH2      OT        0.00000       15.9994           0
       599 CLST     200      TIP3     H1       HT        0.00000       1.00800           0
       600 CLST     200      TIP3     H2       HT        0.00000       1.00800           0
       601 CLST     201      TIP3     OH2      OT        0.00000       15.9994           0
       602 CLST     201      TIP3     H1       HT        0.00000       1.00800           0
       603 CLST     201      TIP3     H2       HT        0.00000       1.00800           0
       604 CLST     202      TIP3     OH2      OT        0.00000       15.9994           0
       605 CLST     202      TIP3     H1       HT        0.00000       1.00800           0
       606 CLST     202      TIP3     H2       HT        0.00000       1.00800           0
       607 CLST     203      TIP3     OH2      OT        0.00000       15.9994           0
       608 CLST     203      TIP3     H1       HT        0.00000       1.00800           0
       609 CLST     203      TIP3     H2       HT        0.00000       1.00800           0
       610 CLST     204      TIP3     OH2      OT        0.00000       15.9994           0
       611 CLST     204      TIP3     H1       HT        0.00000       1.00800           0
       612 CLST     204      TIP3     H2       HT        0.00000       1.00800           0
       613 CLST     205      TIP3     OH2      OT        0.00000       15.9994           0
       614 CLST     205      TIP3     H1       HT        0.00000       1.00800           0
       615 CLST     205      TIP3     H2       HT        0.00000       1.00800           0
       616 CLST     206      TIP3     OH2      OT        0.00000       15.9994           0
       617 CLST     206      TIP3     H1       HT        0.00000       1.00800           0
       618 CLST     206      TIP3     H2       HT        0.00000       1.00800           0
       619 CLST     207      TIP3     OH2      OT        0.00000       15.9994           0
       620 CLST     207      TIP3     H1       HT        0.00000       1.00800           0
       621 CLST     207      TIP3     H2       HT        0.00000       1.00800           0
       622 CLST     208      TIP3     OH2      OT        0.00000       15.9994           0
       623 CLST     208      TIP3     H1       HT        0.00000       1.00800           0
       624 CLST     208      TIP3     H2       HT        0.00000       1.00800           0
       625 CLST     209      TIP3     OH2      OT        0.00000       15.9994           0
       626 CLST     209      TIP3     H1       HT        0.00000       1.00800           0
       627 CLST     209      TIP3     H2       HT        0.00000       1.00800           0
       628 CLST     210      TIP3     OH2      OT        0.00000       15.9994           0
       629 CLST     210      TIP3     H1       HT        0.00000       1.00800           0
       630 CLST     210      TIP3     H2       HT        0.00000       1.00800           0
       631 CLST     211      TIP3     OH2      OT        0.00000       15.9994           0
       632 CLST     211      TIP3     H1       HT        0.00000       1.00800           0
       633 CLST     211      TIP3     H2       HT        0.00000       1.00800           0
       634 CLST     212      TIP3     OH2      OT        0.00000       15.9994           0
       635 CLST     212      TIP3     H1       HT        0.00000       1.00800           0
       636 CLST     212      TIP3     H2       HT        0.00000       1.00800           0
       637 CLST     213      TIP3     OH2      OT        0.00000       15.9994           0
       638 CLST     213      TIP3     H1       HT        0.00000       1.00800           0
       639 CLST     213      TIP3     H2       HT        0.00000       1.00800           0
       640 CLST     214      TIP3     OH2      OT        0.00000       15.9994           0
       641 CLST     214      TIP3     H1       HT        0.00000       1.00800           0
       642 CLST     214      TIP3     H2       HT        0.00000       1.00800           0
       643 CLST     215      TIP3     OH2      OT        0.00000       15.9994           0
       644 CLST     215      TIP3     H1       HT        0.00000       1.00800           0
       645 CLST     215      TIP3     H2       HT        0.00000       1.00800           0
       646 CLST     216      TIP3     OH2      OT        0.00000       15.9994           0
       647 CLST     216      TIP3     H1       HT        0.00000       1.00800           0
       648 CLST     216      TIP3     H2       HT        0.00000       1.00800           0
       649 CLST     217      TIP3     OH2      OT        0.00000       15.9994           0
       650 CLST     217      TIP3     H1       HT        0.00000       1.00800           0
       651 CLST     217      TIP3     H2       HT        0.00000       1.00800           0
       652 CLST     218      TIP3     OH2      OT        0.00000       15.9994           0
       653 CLST     218      TIP3     H1       HT        0.00000       1.00800           0
       654 CLST     218      TIP3     H2       HT        0.00000       1.00800           0
       655 CLST     219      TIP3     OH2      OT        0.00000       15.9994           0
       656 CLST     219      TIP3     H1       HT        0.00000       1.00800           0
       657 CLST     219      TIP3     H2       HT        0.00000       1.00800           0
       658 CLST     220      TIP3     OH2      OT        0.00000       15.9994           0
       659 CLST     220      TIP3     H1       HT        0.00000       1.00800           0
       660 CLST     220      TIP3     H2       HT        0.00000       1.00800           0
       661 CLST     221      TIP3     OH2      OT        0.00000       15.9994           0
       662 CLST     221      TIP3     H1       HT        0.00000       1.00800           0
       663 CLST     221      TIP3     H2       HT        0.00000       1.00800           0
       664 CLST     222      TIP3     OH2      OT        0.00000       15.9994           0
       665 CLST     222      TIP3     H1       HT        0.00000       1.00800           0
       666 CLST     222      TIP3     H2       HT        0.00000       1.00800           0
       667 CLST     223      TIP3     OH2      OT        0.00000       15.9994           0
       668 CLST     223      TIP3     H1       HT        0.00000       1.00800           0
       669 CLST     223      TIP3     H2       HT        0.00000       1.00800           0
       670 CLST     224      TIP3     OH2      OT        0.00000       15.9994           0
       671 CLST     224      TIP3     H1       HT        0.00000       1.00800           0
       672 CLST     224      TIP3     H2       HT        0.00000       1.00800           0
       673 CLST     225      TIP3     OH2      OT        0.00000       15.9994           0
       674 CLST     225      TIP3     H1       HT        0.00000       1.00800           0
       675 CLST     225      TIP3     H2       HT        0.00000       1.00800           0
       676 CLST     226      TIP3     OH2      OT        0.00000       15.9994           0
       677 CLST     226      TIP3     H1       HT        0.00000       1.00800           0
       678 CLST     226      TIP3     H2       HT        0.00000       1.00800           0
       679 CLST     227      TIP3     OH2      OT        0.00000       15.9994           0
       680 CLST     227      TIP3     H1       HT        0.00000       1.00800           0
       681 CLST     227      TIP3     H2       HT        0.00000       1.00800           0
       682 CLST     228      TIP3     OH2      OT        0.00000       15.9994           0
       683 CLST     228      TIP3     H1       HT        0.00000       1.00800           0
       684 CLST     228      TIP3     H2       HT        0.00000       1.00800           0
       685 CLST     229      TIP3     OH2      OT        0.00000       15.9994           0
       686 CLST     229      TIP3     H1       HT        0.00000       1.00800           0
       687 CLST     229      TIP3     H2       HT        0.00000       1.00800           0
       688 CLST     230      TIP3     OH2      OT        0.00000       15.9994           0
       689 CLST     230      TIP3     H1       HT        0.00000       1.00800           0
       690 CLST     230      TIP3     H2       HT        0.00000       1.00800           0
       691 CLST     231      TIP3     OH2      OT        0.00000       15.9994           0
       692 CLST     231      TIP3     H1       HT        0.00000       1.00800           0
       693 CLST     231      TIP3     H2       HT        0.00000       1.00800           0
       694 CLST     232      TIP3     OH2      OT        0.00000       15.9994           0
       695 CLST     232      TIP3     H1       HT        0.00000       1.00800           0
       696 CLST     232      TIP3     H2       HT        0.00000       1.00800           0
       697 CLST     233      TIP3     OH2      OT        0.00000       15.9994           0
       698 CLST     233      TIP3     H1       HT        0.00000       1.00800           0
       699 CLST     233      TIP3     H2       HT        0.00000       1.00800           0
       700 CLST     234      TIP3     OH2      OT        0.00000       15.9994           0
       701 CLST     234      TIP3     H1       HT        0.00000       1.00800           0
       702 CLST     234      TIP3     H2       HT        0.00000       1.00800           0
       703 CLST     235      TIP3     OH2      OT        0.00000       15.9994           0
       704 CLST     235      TIP3     H1       HT        0.00000       1.00800           0
       705 CLST     235      TIP3     H2       HT        0.00000       1.00800           0
       706 CLST     236      TIP3     OH2      OT        0.00000       15.9994           0
       707 CLST     236      TIP3     H1       HT        0.00000       1.00800           0
       708 CLST     236      TIP3     H2       HT        0.00000       1.00800           0
       709 CLST     237      TIP3     OH2      OT        0.00000       15.9994           0
       710 CLST     237      TIP3     H1       HT        0.00000       1.00800           0
       711 CLST     237      TIP3     H2       HT        0.00000       1.00800           0
       712 CLST     238      TIP3     OH2      OT        0.00000       15.9994           0
       713 CLST     238      TIP3     H1       HT        0.00000       1.00800           0
       714 CLST     238      TIP3     H2       HT        0.00000       1.00800           0
       715 CLST     239      TIP3     OH2      OT        0.00000       15.9994           0
       716 CLST     239      TIP3     H1       HT        0.00000       1.00800           0
       717 CLST     239      TIP3     H2       HT        0.00000       1.00800           0
       718 CLST     240      TIP3     OH2      OT        0.00000       15.9994           0
       719 CLST     240      TIP3     H1       HT        0.00000       1.00800           0
       720 CLST     240      TIP3     H2       HT        0.00000       1.00800           0
       721 CLST     241      TIP3     OH2      OT        0.00000       15.9994           0
       722 CLST     241      TIP3     H1       HT        0.00000       1.00800           0
       723 CLST     241      TIP3     H2       HT        0.00000       1.00800           0
       724 CLST     242      TIP3     OH2      OT        0.00000       15.9994           0
       725 CLST     242      TIP3     H1       HT        0.00000       1.00800           0
       726 CLST     242      TIP3     H2       HT        0.00000       1.00800           0
       727 CLST     243      TIP3     OH2      OT        0.00000       15.9994           0
       728 CLST     243      TIP3     H1       HT        0.00000       1.00800           0
       729 CLST     243      TIP3     H2       HT        0.00000       1.00800           0
       730 CLST     244      TIP3     OH2      OT        0.00000       15.9994           0
       731 CLST     244      TIP3     H1       HT        0.00000       1.00800           0
       732 CLST     244      TIP3     H2       HT        0.00000       1.00800           0
       733 CLST     245      TIP3     OH2      OT        0.00000       15.9994           0
       734 CLST     245      TIP3     H1       HT        0.00000       1.00800           0
       735 CLST     245      TIP3     H2       HT        0.00000       1.00800           0
       736 CLST     246      TIP3     OH2      OT        0.00000       15.9994           0
       737 CLST     246      TIP3     H1       HT        0.00000       1.00800           0
       738 CLST     246      TIP3     H2       HT        0.00000       1.00800           0
       739 CLST     247      TIP3     OH2      OT        0.00000       15.9994           0
       740 CLST     247      TIP3     H1       HT        0.00000       1.00800           0
       741 CLST     247      TIP3     H2       HT        0.00000       1.00800           0
       742 CLST     248      TIP3     OH2      OT        0.00000       15.9994           0
       743 CLST     248      TIP3     H1       HT        0.00000       1.00800           0
       744 CLST     248      TIP3     H2       HT        0.00000       1.00800           0
       745 CLST     249      TIP3     OH2      OT        0.00000       15.9994           0
       746 CLST     249      TIP3     H1       HT        0.00000       1.00800           0
       747 CLST     249      TIP3     H2       HT        0.00000       1.00800           0
       748 CLST     250      TIP3     OH2      OT        0.00000       15.9994           0
       749 CLST     250      TIP3     H1       HT        0.00000       1.00800           0
       750 CLST     250      TIP3     H2       HT        0.00000       1.00800           0
       751 CLST     251      TIP3     OH2      OT        0.00000       15.9994           0
       752 CLST     251      TIP3     H1       HT        0.00000       1.00800           0
       753 CLST     251      TIP3     H2       HT        0.00000       1.00800           0
       754 CLST     252      TIP3     OH2      OT        0.00000       15.9994           0
       755 CLST     252      TIP3     H1       HT        0.00000       1.00800           0
       756 CLST     252      TIP3     H2       HT        0.00000       1.00800           0
       757 CLST     253      TIP3     OH2      OT        0.00000       15.9994           0
       758 CLST     253      TIP3     H1       HT        0.00000       1.00800           0
       759 CLST     253      TIP3     H2       HT        0.00000       1.00800           0
       760 CLST     254      TIP3     OH2      OT        0.00000       15.9994           0
       761 CLST     254      TIP3     H1       HT        0.00000       1.00800           0
       762 CLST     254      TIP3     H2       HT        0.00000       1.00800           0
       763 CLST     255      TIP3     OH2      OT        0.00000       15.9994           0
       764 CLST     255      TIP3     H1       HT        0.00000       1.00800           0
       765 CLST     255      TIP3     H2       HT        0.00000       1.00800           0
       766 CLST     256      TIP3     OH2      OT        0.00000       15.9994           0
       767 CLST     256      TIP3     H1       HT        0.00000       1.00800           0
       768 CLST     256      TIP3     H2       HT        0.00000       1.00800           0
       769 CLST     257      TIP3     OH2      OT        0.00000       15.9994           0
       770 CLST     257      TIP3     H1       HT        0.00000       1.00800           0
       771 CLST     257      TIP3     H2       HT        0.00000       1.00800           0
       772 CLST     258      TIP3     OH2      OT        0.00000       15.9994           0
       773 CLST     258      TIP3     H1       HT        0.00000       1.00800           0
       774 CLST     258      TIP3     H2       HT        0.00000       1.00800           0
       775 CLST     259      TIP3     OH2      OT        0.00000       15.9994           0
       776 CLST     259      TIP3     H1       HT        0.00000       1.00800           0
       777 CLST     259      TIP3     H2       HT        0.00000       1.00800           0
       778 CLST     260      TIP3     OH2      OT        0.00000       15.9994           0
       779 CLST     260      TIP3     H1       HT        0.00000       1.00800           0
       780 CLST     260      TIP3     H2       HT        0.00000       1.00800           0
       781 CLST     261      TIP3     OH2      OT        0.00000       15.9994           0
       782 CLST     261      TIP3     H1       HT        0.00000       1.00800           0
       783 CLST     261      TIP3     H2       HT        0.00000       1.00800           0
       784 CLST     262      TIP3     OH2      OT        0.00000       15.9994           0
       785 CLST     262      TIP3     H1       HT        0.00000       1.00800           0
       786 CLST     262      TIP3     H2       HT        0.00000       1.00800           0
       787 CLST     263      TIP3     OH2      OT        0.00000       15.9994           0
       788 CLST     263      TIP3     H1       HT        0.00000       1.00800           0
       789 CLST     263      TIP3     H2       HT        0.00000       1.00800           0
       790 CLST     264      TIP3     OH2      OT        0.00000       15.9994           0
       791 CLST     264      TIP3     H1       HT        0.00000       1.00800           0
       792 CLST     264      TIP3     H2       HT        0.00000       1.00800           0
       793 CLST     265      TIP3     OH2      OT        0.00000       15.9994           0
       794 CLST     265      TIP3     H1       HT        0.00000       1.00800           0
       795 CLST     265      TIP3     H2       HT        0.00000       1.00800           0
       796 CLST     266      TIP3     OH2      OT        0.00000       15.9994           0
       797 CLST     266      TIP3     H1       HT        0.00000       1.00800           0
       798 CLST     266      TIP3     H2       HT        0.00000       1.00800           0
       799 CLST     267      TIP3     OH2      OT        0.00000       15.9994           0
       800 CLST     267      TIP3     H1       HT        0.00000       1.00800           0
       801 CLST     267      TIP3     H2       HT        0.00000       1.00800           0
       802 CLST     268      TIP3     OH2      OT        0.00000       15.9994           0
       803 CLST     268      TIP3     H1       HT        0.00000       1.00800           0
       804 CLST     268      TIP3     H2       HT        0.00000       1.00800           0
       805 CLST     269      TIP3     OH2      OT        0.00000       15.9994           0
       806 CLST     269      TIP3     H1       HT        0.00000       1.00800           0
       807 CLST     269      TIP3     H2       HT        0.00000       1.00800           0
       808 CLST     270      TIP3     OH2      OT        0.00000       15.9994           0
       809 CLST     270      TIP3     H1       HT        0.00000       1.00800           0
       810 CLST     270      TIP3     H2       HT        0.00000       1.00800           0
       811 CLST     271      TIP3     OH2      OT        0.00000       15.9994           0
       812 CLST     271      TIP3     H1       HT        0.00000       1.00800           0
       813 CLST     271      TIP3     H2       HT        0.00000       1.00800           0
       814 CLST     272      TIP3     OH2      OT        0.00000       15.9994           0
       815 CLST     272      TIP3     H1       HT        0.00000       1.00800           0
       816 CLST     272      TIP3     H2       HT        0.00000       1.00800           0
       817 CLST     273      TIP3     OH2      OT        0.00000       15.9994           0
       818 CLST     273      TIP3     H1       HT        0.00000       1.00800           0
       819 CLST     273      TIP3     H2       HT        0.00000       1.00800           0
       820 CLST     274      TIP3     OH2      OT        0.00000       15.9994           0
       821 CLST     274      TIP3     H1       HT        0.00000       1.00800           0
       822 CLST     274      TIP3     H2       HT        0.00000       1.00800           0
       823 CLST     275      TIP3     OH2      OT        0.00000       15.9994           0
       824 CLST     275      TIP3     H1       HT        0.00000       1.00800           0
       825 CLST     275      TIP3     H2       HT        0.00000       1.00800           0
       826 CLST     276      TIP3     OH2      OT        0.00000       15.9994           0
       827 CLST     276      TIP3     H1       HT        0.00000       1.00800           0
       828 CLST     276      TIP3     H2       HT        0.00000       1.00800           0
       829 CLST     277      TIP3     OH2      OT        0.00000       15.9994           0
       830 CLST     277      TIP3     H1       HT        0.00000       1.00800           0
       831 CLST     277      TIP3     H2       HT        0.00000       1.00800           0
       832 CLST     278      TIP3     OH2      OT        0.00000       15.9994           0
       833 CLST     278      TIP3     H1       HT        0.00000       1.00800           0
       834 CLST     278      TIP3     H2       HT        0.00000       1.00800           0
       835 CLST     279      TIP3     OH2      OT        0.00000       15.9994           0
       836 CLST     279      TIP3     H1       HT        0.00000       1.00800           0
       837 CLST     279      TIP3     H2       HT        0.00000       1.00800           0
       838 CLST     280      TIP3     OH2      OT        0.00000       15.9994           0
       839 CLST     280      TIP3     H1       HT        0.00000       1.00800           0
       840 CLST     280      TIP3     H2       HT        0.00000       1.00800           0
       841 CLST     281      TIP3     OH2      OT        0.00000       15.9994           0
       842 CLST     281      TIP3     H1       HT        0.00000       1.00800           0
       843 CLST     281      TIP3     H2       HT        0.00000       1.00800           0
       844 CLST     282      TIP3     OH2      OT        0.00000       15.9994           0
       845 CLST     282      TIP3     H1       HT        0.00000       1.00800           0
       846 CLST     282      TIP3     H2       HT        0.00000       1.00800           0
       847 CLST     283      TIP3     OH2      OT        0.00000       15.9994           0
       848 CLST     283      TIP3     H1       HT        0.00000       1.00800           0
       849 CLST     283      TIP3     H2       HT        0.00000       1.00800           0
       850 CLST     284      TIP3     OH2      OT        0.00000       15.9994           0
       851 CLST     284      TIP3     H1       HT        0.00000       1.00800           0
       852 CLST     284      TIP3     H2       HT        0.00000       1.00800           0
       853 CLST     285      TIP3     OH2      OT        0.00000       15.9994           0
       854 CLST     285      TIP3     H1       HT        0.00000       1.00800           0
       855 CLST     285      TIP3     H2       HT        0.00000       1.00800           0
       856 CLST     286      TIP3     OH2      OT        0.00000       15.9994           0
       857 CLST     286      TIP3     H1       HT        0.00000       1.00800           0
       858 CLST     286      TIP3     H2       HT        0.00000       1.00800           0
       859 CLST     287      TIP3     OH2      OT        0.00000       15.9994           0
       860 CLST     287      TIP3     H1       HT        0.00000       1.00800           0
       861 CLST     287      TIP3     H2       HT        0.00000       1.00800           0
       862 CLST     288      TIP3     OH2      OT        0.00000       15.9994           0
       863 CLST     288      TIP3     H1       HT        0.00000       1.00800           0
       864 CLST     288      TIP3     H2       HT        0.00000       1.00800           0
       865 CLST     289      TIP3     OH2      OT        0.00000       15.9994           0
       866 CLST     289      TIP3     H1       HT        0.00000       1.00800           0
       867 CLST     289      TIP3     H2       HT        0.00000       1.00800           0
       868 CLST     290      TIP3     OH2      OT        0.00000       15.9994           0
       869 CLST     290      TIP3     H1       HT        0.00000       1.00800           0
       870 CLST     290      TIP3     H2       HT        0.00000       1.00800           0
       871 CLST     291      TIP3     OH2      OT        0.00000       15.9994           0
       872 CLST     291      TIP3     H1       HT        0.00000       1.00800           0
       873 CLST     291      TIP3     H2       HT        0.00000       1.00800           0
       874 CLST     292      TIP3     OH2      OT        0.00000       15.9994           0
       875 CLST     292      TIP3     H1       HT        0.00000       1.00800           0
       876 CLST     292      TIP3     H2       HT        0.00000       1.00800           0
       877 CLST     293      TIP3     OH2      OT        0.00000       15.9994           0
       878 CLST     293      TIP3     H1       HT        0.00000       1.00800           0
       879 CLST     293      TIP3     H2       HT        0.00000       1.00800           0
       880 CLST     294      TIP3     OH2      OT        0.00000       15.9994           0
       881 CLST     294      TIP3     H1       HT        0.00000       1.00800           0
       882 CLST     294      TIP3     H2       HT        0.00000       1.00800           0
       883 CLST     295      TIP3     OH2      OT        0.00000       15.9994           0
       884 CLST     295      TIP3     H1       HT        0.00000       1.00800           0
       885 CLST     295      TIP3     H2       HT        0.00000       1.00800           0
       886 CLST     296      TIP3     OH2      OT        0.00000       15.9994           0
       887 CLST     296      TIP3     H1       HT        0.00000       1.00800           0
       888 CLST     296      TIP3     H2       HT        0.00000       1.00800           0
       889 CLST     297      TIP3     OH2      OT        0.00000       15.9994           0
       890 CLST     297      TIP3     H1       HT        0.00000       1.00800           0
       891 CLST     297      TIP3     H2       HT        0.00000       1.00800           0
       892 CLST     298      TIP3     OH2      OT        0.00000       15.9994           0
       893 CLST     298      TIP3     H1       HT        0.00000       1.00800           0
       894 CLST     298      TIP3     H2       HT        0.00000       1.00800           0
       895 CLST     299      TIP3     OH2      OT        0.00000       15.9994           0
       896 CLST     299      TIP3     H1       HT        0.00000       1.00800           0
       897 CLST     299      TIP3     H2       HT        0.00000       1.00800           0
       898 CLST     300      TIP3     OH2      OT        0.00000       15.9994           0
       899 CLST     300      TIP3     H1       HT        0.00000       1.00800           0
       900 CLST     300      TIP3     H2       HT        0.00000       1.00800           0
       901 CLST     301      TIP3     OH2      OT        0.00000       15.9994           0
       902 CLST     301      TIP3     H1       HT        0.00000       1.00800           0
       903 CLST     301      TIP3     H2       HT        0.00000       1.00800           0
       904 CLST     302      TIP3     OH2      OT        0.00000       15.9994           0
       905 CLST     302      TIP3     H1       HT        0.00000       1.00800           0
       906 CLST     302      TIP3     H2       HT        0.00000       1.00800           0
       907 CLST     303      TIP3     OH2      OT        0.00000       15.9994           0
       908 CLST     303      TIP3     H1       HT        0.00000       1.00800           0
       909 CLST     303      TIP3     H2       HT        0.00000       1.00800           0
       910 CLST     304      TIP3     OH2      OT        0.00000       15.9994           0
       911 CLST     304      TIP3     H1       HT        0.00000       1.00800           0
       912 CLST     304      TIP3     H2       HT        0.00000       1.00800           0
       913 CLST     305      TIP3     OH2      OT        0.00000       15.9994           0
       914 CLST     305      TIP3     H1       HT        0.00000       1.00800           0
       915 CLST     305      TIP3     H2       HT        0.00000       1.00800           0
       916 CLST     306      TIP3     OH2      OT        0.00000       15.9994           0
       917 CLST     306      TIP3     H1       HT        0.00000       1.00800           0
       918 CLST     306      TIP3     H2       HT        0.00000       1.00800           0
       919 CLST     307      TIP3     OH2      OT        0.00000       15.9994           0
       920 CLST     307      TIP3     H1       HT        0.00000       1.00800           0
       921 CLST     307      TIP3     H2       HT        0.00000       1.00800           0
       922 CLST     308      TIP3     OH2      OT        0.00000       15.9994           0
       923 CLST     308      TIP3     H1       HT        0.00000       1.00800           0
       924 CLST     308      TIP3     H2       HT        0.00000       1.00800           0
       925 CLST     309      TIP3     OH2      OT        0.00000       15.9994           0
       926 CLST     309      TIP3     H1       HT        0.00000       1.00800           0
       927 CLST     309      TIP3     H2       HT        0.00000       1.00800           0
       928 CLST     310      TIP3     OH2      OT        0.00000       15.9994           0
       929 CLST     310      TIP3     H1       HT        0.00000       1.00800           0
       930 CLST     310      TIP3     H2       HT        0.00000       1.00800           0
       931 CLST     311      TIP3     OH2      OT        0.00000       15.9994           0
       932 CLST     311      TIP3     H1       HT        0.00000       1.00800           0
       933 CLST     311      TIP3     H2       HT        0.00000       1.00800           0
       934 CLST     312      TIP3     OH2      OT        0.00000       15.9994           0
       935 CLST     312      TIP3     H1       HT        0.00000       1.00800           0
       936 CLST     312      TIP3     H2       HT        0.00000       1.00800           0
       937 CLST     313      TIP3     OH2      OT        0.00000       15.9994           0
       938 CLST     313      TIP3     H1       HT        0.00000       1.00800           0
       939 CLST     313      TIP3     H2       HT        0.00000       1.00800           0
       940 CLST     314      TIP3     OH2      OT        0.00000       15.9994           0
       941 CLST     314      TIP3     H1       HT        0.00000       1.00800           0
       942 CLST     314      TIP3     H2       HT        0.00000       1.00800           0
       943 CLST     315      TIP3     OH2      OT        0.00000       15.9994           0
       944 CLST     315      TIP3     H1       HT        0.00000       1.00800           0
       945 CLST     315      TIP3     H2       HT        0.00000       1.00800           0
       946 CLST     316      TIP3     OH2      OT        0.00000       15.9994           0
       947 CLST     316      TIP3     H1       HT        0.00000       1.00800           0
       948 CLST     316      TIP3     H2       HT        0.00000       1.00800           0
       949 CLST     317      TIP3     OH2      OT        0.00000       15.9994           0
       950 CLST     317      TIP3     H1       HT        0.00000       1.00800           0
       951 CLST     317      TIP3     H2       HT        0.00000       1.00800           0
       952 CLST     318      TIP3     OH2      OT        0.00000       15.9994           0
       953 CLST     318      TIP3     H1       HT        0.00000       1.00800           0
       954 CLST     318      TIP3     H2       HT        0.00000       1.00800           0
       955 CLST     319      TIP3     OH2      OT        0.00000       15.9994           0
       956 CLST     319      TIP3     H1       HT        0.00000       1.00800           0
       957 CLST     319      TIP3     H2       HT        0.00000       1.00800           0
       958 CLST     320      TIP3     OH2      OT        0.00000       15.9994           0
       959 CLST     320      TIP3     H1       HT        0.00000       1.00800           0
       960 CLST     320      TIP3     H2       HT        0.00000       1.00800           0
       961 CLST     321      TIP3     OH2      OT        0.00000       15.9994           0
       962 CLST     321      TIP3     H1       HT        0.00000       1.00800           0
       963 CLST     321      TIP3     H2       HT        0.00000       1.00800           0
       964 CLST     322      TIP3     OH2      OT        0.00000       15.9994           0
       965 CLST     322      TIP3     H1       HT        0.00000       1.00800           0
       966 CLST     322      TIP3     H2       HT        0.00000       1.00800           0
       967 CLST     323      TIP3     OH2      OT        0.00000       15.9994           0
       968 CLST     323      TIP3     H1       HT        0.00000       1.00800           0
       969 CLST     323      TIP3     H2       HT        0.00000       1.00800           0
       970 CLST     324      TIP3     OH2      OT        0.00000       15.9994           0
       971 CLST     324      TIP3     H1       HT        0.00000       1.00800           0
       972 CLST     324      TIP3     H2       HT        0.00000       1.00800           0
       973 CLST     325      TIP3     OH2      OT        0.00000       15.9994           0
       974 CLST     325      TIP3     H1       HT        0.00000       1.00800           0
       975 CLST     325      TIP3     H2       HT        0.00000       1.00800           0
       976 CLST     326      TIP3     OH2      OT        0.00000       15.9994           0
       977 CLST     326      TIP3     H1       HT        0.00000       1.00800           0
       978 CLST     326      TIP3     H2       HT        0.00000       1.00800           0
       979 CLST     327      TIP3     OH2      OT        0.00000       15.9994           0
       980 CLST     327      TIP3     H1       HT        0.00000       1.00800           0
       981 CLST     327      TIP3     H2       HT        0.00000       1.00800           0
       982 CLST     328      TIP3     OH2      OT        0.00000       15.9994           0
       983 CLST     328      TIP3     H1       HT        0.00000       1.00800           0
       984 CLST     328      TIP3     H2       HT        0.00000       1.00800           0
       985 CLST     329      TIP3     OH2      OT        0.00000       15.9994           0
       986 CLST     329      TIP3     H1       HT        0.00000       1.00800           0
       987 CLST     329      TIP3     H2       HT        0.00000       1.00800           0
       988 CLST     330      TIP3     OH2      OT        0.00000       15.9994           0
       989 CLST     330      TIP3     H1       HT        0.00000       1.00800           0
       990 CLST     330      TIP3     H2       HT        0.00000       1.00800           0
       991 CLST     331      TIP3     OH2      OT        0.00000       15.9994           0
       992 CLST     331      TIP3     H1       HT        0.00000       1.00800           0
       993 CLST     331      TIP3     H2       HT        0.00000       1.00800           0
       994 CLST     332      TIP3     OH2      OT        0.00000       15.9994           0
       995 CLST     332      TIP3     H1       HT        0.00000       1.00800           0
       996 CLST     332      TIP3     H2       HT        0.00000       1.00800           0
       997 CLST     333      TIP3     OH2      OT        0.00000       15.9994           0
       998 CLST     333      TIP3     H1       HT        0.00000       1.00800           0
       999 CLST     333      TIP3     H2       HT        0.00000       1.00800           0
      1000 CLST     334      TIP3     OH2      OT        0.00000       15.9994           0
      1001 CLST     334      TIP3     H1       HT        0.00000       1.00800           0
      1002 CLST     334      TIP3     H2       HT        0.00000       1.00800           0
      1003 CLST     335      TIP3     OH2      OT        0.00000       15.9994           0
      1004 CLST     335      TIP3     H1       HT        0.00000       1.00800           0
      1005 CLST     335      TIP3     H2       HT        0.00000       1.00800           0
      1006 CLST     336      TIP3     OH2      OT        0.00000       15.9994           0
      1007 CLST     336      TIP3     H1       HT        0.00000       1.00800           0
      1008 CLST     336      TIP3     H2       HT        0.00000       1.00800           0
      1009 CLST     337      TIP3     OH2      OT        0.00000       15.9994           0
      1010 CLST     337      TIP3     H1       HT        0.00000       1.00800           0
      1011 CLST     337      TIP3     H2       HT        0.00000       1.00800           0
      1012 CLST     338      TIP3     OH2      OT        0.00000       15.9994           0
      1013 CLST     338      TIP3     H1       HT        0.00000       1.00800           0
      1014 CLST     338      TIP3     H2       HT        0.00000       1.00800           0
      1015 CLST     339      TIP3     OH2      OT        0.00000       15.9994           0
      1016 CLST     339      TIP3     H1       HT        0.00000       1.00800           0
      1017 CLST     339      TIP3     H2       HT        0.00000       1.00800           0
      1018 CLST     340      TIP3     OH2      OT        0.00000       15.9994           0
      1019 CLST     340      TIP3     H1       HT        0.00000       1.00800           0
      1020 CLST     340      TIP3     H2       HT        0.00000       1.00800           0
      1021 CLST     341      TIP3     OH2      OT        0.00000       15.9994           0
      1022 CLST     341      TIP3     H1       HT        0.00000       1.00800           0
      1023 CLST     341      TIP3     H2       HT        0.00000       1.00800           0
      1024 CLST     342      TIP3     OH2      OT        0.00000       15.9994           0
      1025 CLST     342      TIP3     H1       HT        0.00000       1.00800           0
      1026 CLST     342      TIP3     H2       HT        0.00000       1.00800           0
      1027 CLST     343      TIP3     OH2      OT        0.00000       15.9994           0
      1028 CLST     343      TIP3     H1       HT        0.00000       1.00800           0
      1029 CLST     343      TIP3     H2       HT        0.00000       1.00800           0
      1030 CLST     344      TIP3     OH2      OT        0.00000       15.9994           0
      1031 CLST     344      TIP3     H1       HT        0.00000       1.00800           0
      1032 CLST     344      TIP3     H2       HT        0.00000       1.00800           0
      1033 CLST     345      TIP3     OH2      OT        0.00000       15.9994           0
      1034 CLST     345      TIP3     H1       HT        0.00000       1.00800           0
      1035 CLST     345      TIP3     H2       HT        0.00000       1.00800           0
      1036 CLST     346      TIP3     OH2      OT        0.00000       15.9994           0
      1037 CLST     346      TIP3     H1       HT        0.00000       1.00800           0
      1038 CLST     346      TIP3     H2       HT        0.00000       1.00800           0
      1039 CLST     347      TIP3     OH2      OT        0.00000       15.9994           0
      1040 CLST     347      TIP3     H1       HT        0.00000       1.00800           0
      1041 CLST     347      TIP3     H2       HT        0.00000       1.00800           0
      1042 CLST     348      TIP3     OH2      OT        0.00000       15.9994           0
      1043 CLST     348      TIP3     H1       HT        0.00000       1.00800           0
      1044 CLST     348      TIP3     H2       HT        0.00000       1.00800           0
      1045 CLST     349      TIP3     OH2      OT        0.00000       15.9994           0
      1046 CLST     349      TIP3     H1       HT        0.00000       1.00800           0
      1047 CLST     349      TIP3     H2       HT        0.00000       1.00800           0
      1048 CLST     350      TIP3     OH2      OT        0.00000       15.9994           0
      1049 CLST     350      TIP3     H1       HT        0.00000       1.00800           0
      1050 CLST     350      TIP3     H2       HT        0.00000       1.00800           0
      1051 CLST     351      TIP3     OH2      OT        0.00000       15.9994           0
      1052 CLST     351      TIP3     H1       HT        0.00000       1.00800           0
      1053 CLST     351      TIP3     H2       HT        0.00000       1.00800           0
      1054 CLST     352      TIP3     OH2      OT        0.00000       15.9994           0
      1055 CLST     352      TIP3     H1       HT        0.00000       1.00800           0
      1056 CLST     352      TIP3     H2       HT        0.00000       1.00800           0
      1057 CLST     353      TIP3     OH2      OT        0.00000       15.9994           0
      1058 CLST     353      TIP3     H1       HT        0.00000       1.00800           0
      1059 CLST     353      TIP3     H2       HT        0.00000       1.00800           0
      1060 CLST     354      TIP3     OH2      OT        0.00000       15.9994           0
      1061 CLST     354      TIP3     H1       HT        0.00000       1.00800           0
      1062 CLST     354      TIP3     H2       HT        0.00000       1.00800           0
      1063 CLST     355      TIP3     OH2      OT        0.00000       15.9994           0
      1064 CLST     355      TIP3     H1       HT        0.00000       1.00800           0
      1065 CLST     355      TIP3     H2       HT        0.00000       1.00800           0
      1066 CLST     356      TIP3     OH2      OT        0.00000       15.9994           0
      1067 CLST     356      TIP3     H1       HT        0.00000       1.00800           0
      1068 CLST     356      TIP3     H2       HT        0.00000       1.00800           0
      1069 CLST     357      TIP3     OH2      OT        0.00000       15.9994           0
      1070 CLST     357      TIP3     H1       HT        0.00000       1.00800           0
      1071 CLST     357      TIP3     H2       HT        0.00000       1.00800           0
      1072 CLST     358      TIP3     OH2      OT        0.00000       15.9994           0
      1073 CLST     358      TIP3     H1       HT        0.00000       1.00800           0
      1074 CLST     358      TIP3     H2       HT        0.00000       1.00800           0
      1075 CLST     359      TIP3     OH2      OT        0.00000       15.9994           0
      1076 CLST     359      TIP3     H1       HT        0.00000       1.00800           0
      1077 CLST     359      TIP3     H2       HT        0.00000       1.00800           0
      1078 CLST     360      TIP3     OH2      OT        0.00000       15.9994           0
      1079 CLST     360      TIP3     H1       HT        0.00000       1.00800           0
      1080 CLST     360      TIP3     H2       HT        0.00000       1.00800           0
      1081 CLST     361      TIP3     OH2      OT        0.00000       15.9994           0
      1082 CLST     361      TIP3     H1       HT        0.00000       1.00800           0
      1083 CLST     361      TIP3     H2       HT        0.00000       1.00800           0
      1084 CLST     362      TIP3     OH2      OT        0.00000       15.9994           0
      1085 CLST     362      TIP3     H1       HT        0.00000       1.00800           0
      1086 CLST     362      TIP3     H2       HT        0.00000       1.00800           0
      1087 CLST     363      TIP3     OH2      OT        0.00000       15.9994           0
      1088 CLST     363      TIP3     H1       HT        0.00000       1.00800           0
      1089 CLST     363      TIP3     H2       HT        0.00000       1.00800           0
      1090 CLST     364      TIP3     OH2      OT        0.00000       15.9994           0
      1091 CLST     364      TIP3     H1       HT        0.00000       1.00800           0
      1092 CLST     364      TIP3     H2       HT        0.00000       1.00800           0
      1093 CLST     365      TIP3     OH2      OT        0.00000       15.9994           0
      1094 CLST     365      TIP3     H1       HT        0.00000       1.00800           0
      1095 CLST     365      TIP3     H2       HT        0.00000       1.00800           0
      1096 CLST     366      TIP3     OH2      OT        0.00000       15.9994           0
      1097 CLST     366      TIP3     H1       HT        0.00000       1.00800           0
      1098 CLST     366      TIP3     H2       HT        0.00000       1.00800           0
      1099 CLST     367      TIP3     OH2      OT        0.00000       15.9994           0
      1100 CLST     367      TIP3     H1       HT        0.00000       1.00800           0
      1101 CLST     367      TIP3     H2       HT        0.00000       1.00800           0
      1102 CLST     368      TIP3     OH2      OT        0.00000       15.9994           0
      1103 CLST     368      TIP3     H1       HT        0.00000       1.00800           0
      1104 CLST     368      TIP3     H2       HT        0.00000       1.00800           0
      1105 CLST     369      TIP3     OH2      OT        0.00000       15.9994           0
      1106 CLST     369      TIP3     H1       HT        0.00000       1.00800           0
      1107 CLST     369      TIP3     H2       HT        0.00000       1.00800           0
      1108 CLST     370      TIP3     OH2      OT        0.00000       15.9994           0
      1109 CLST     370      TIP3     H1       HT        0.00000       1.00800           0
      1110 CLST     370      TIP3     H2       HT        0.00000       1.00800           0
      1111 CLST     371      TIP3     OH2      OT        0.00000       15.9994           0
      1112 CLST     371      TIP3     H1       HT        0.00000       1.00800           0
      1113 CLST     371      TIP3     H2       HT        0.00000       1.00800           0
      1114 CLST     372      TIP3     OH2      OT        0.00000       15.9994           0
      1115 CLST     372      TIP3     H1       HT        0.00000       1.00800           0
      1116 CLST     372      TIP3     H2       HT        0.00000       1.00800           0
      1117 CLST     373      TIP3     OH2      OT        0.00000       15.9994           0
      1118 CLST     373      TIP3     H1       HT        0.00000       1.00800           0
      1119 CLST     373      TIP3     H2       HT        0.00000       1.00800           0
      1120 CLST     374      TIP3     OH2      OT        0.00000       15.9994           0
      1121 CLST     374      TIP3     H1       HT        0.00000       1.00800           0
      1122 CLST     374      TIP3     H2       HT        0.00000       1.00800           0
      1123 CLST     375      TIP3     OH2      OT        0.00000       15.9994           0
      1124 CLST     375      TIP3     H1       HT        0.00000       1.00800           0
      1125 CLST     375      TIP3     H2       HT        0.00000       1.00800           0
      1126 CLST     376      TIP3     OH2      OT        0.00000       15.9994           0
      1127 CLST     376      TIP3     H1       HT        0.00000       1.00800           0
      1128 CLST     376      TIP3     H2       HT        0.00000       1.00800           0
      1129 CLST     377      TIP3     OH2      OT        0.00000       15.9994           0
      1130 CLST     377      TIP3     H1       HT        0.00000       1.00800           0
      1131 CLST     377      TIP3     H2       HT        0.00000       1.00800           0
      1132 CLST     378      TIP3     OH2      OT        0.00000       15.9994           0
      1133 CLST     378      TIP3     H1       HT        0.00000       1.00800           0
      1134 CLST     378      TIP3     H2       HT        0.00000       1.00800           0
      1135 CLST     379      TIP3     OH2      OT        0.00000       15.9994           0
      1136 CLST     379      TIP3     H1       HT        0.00000       1.00800           0
      1137 CLST     379      TIP3     H2       HT        0.00000       1.00800           0
      1138 CLST     380      TIP3     OH2      OT        0.00000       15.9994           0
      1139 CLST     380      TIP3     H1       HT        0.00000       1.00800           0
      1140 CLST     380      TIP3     H2       HT        0.00000       1.00800           0
      1141 CLST     381      TIP3     OH2      OT        0.00000       15.9994           0
      1142 CLST     381      TIP3     H1       HT        0.00000       1.00800           0
      1143 CLST     381      TIP3     H2       HT        0.00000       1.00800           0
      1144 CLST     382      TIP3     OH2      OT        0.00000       15.9994           0
      1145 CLST     382      TIP3     H1       HT        0.00000       1.00800           0
      1146 CLST     382      TIP3     H2       HT        0.00000       1.00800           0
      1147 CLST     383      TIP3     OH2      OT        0.00000       15.9994           0
      1148 CLST     383      TIP3     H1       HT        0.00000       1.00800           0
      1149 CLST     383      TIP3     H2       HT        0.00000       1.00800           0
      1150 CLST     384      TIP3     OH2      OT        0.00000       15.9994           0
      1151 CLST     384      TIP3     H1       HT        0.00000       1.00800           0
      1152 CLST     384      TIP3     H2       HT        0.00000       1.00800           0
      1153 CLST     385      TIP3     OH2      OT        0.00000       15.9994           0
      1154 CLST     385      TIP3     H1       HT        0.00000       1.00800           0
      1155 CLST     385      TIP3     H2       HT        0.00000       1.00800           0
      1156 CLST     386      TIP3     OH2      OT        0.00000       15.9994           0
      1157 CLST     386      TIP3     H1       HT        0.00000       1.00800           0
      1158 CLST     386      TIP3     H2       HT        0.00000       1.00800           0
      1159 CLST     387      TIP3     OH2      OT        0.00000       15.9994           0
      1160 CLST     387      TIP3     H1       HT        0.00000       1.00800           0
      1161 CLST     387      TIP3     H2       HT        0.00000       1.00800           0
      1162 CLST     388      TIP3     OH2      OT        0.00000       15.9994           0
      1163 CLST     388      TIP3     H1       HT        0.00000       1.00800           0
      1164 CLST     388      TIP3     H2       HT        0.00000       1.00800           0
      1165 CLST     389      TIP3     OH2      OT        0.00000       15.9994           0
      1166 CLST     389      TIP3     H1       HT        0.00000       1.00800           0
      1167 CLST     389      TIP3     H2       HT        0.00000       1.00800           0
      1168 CLST     390      TIP3     OH2      OT        0.00000       15.9994           0
      1169 CLST     390      TIP3     H1       HT        0.00000       1.00800           0
      1170 CLST     390      TIP3     H2       HT        0.00000       1.00800           0
      1171 CLST     391      TIP3     OH2      OT        0.00000       15.9994           0
      1172 CLST     391      TIP3     H1       HT        0.00000       1.00800           0
      1173 CLST     391      TIP3     H2       HT        0.00000       1.00800           0
      1174 CLST     392      TIP3     OH2      OT        0.00000       15.9994           0
      1175 CLST     392      TIP3     H1       HT        0.00000       1.00800           0
      1176 CLST     392      TIP3     H2       HT        0.00000       1.00800           0
      1177 CLST     393      TIP3     OH2      OT        0.00000       15.9994           0
      1178 CLST     393      TIP3     H1       HT        0.00000       1.00800           0
      1179 CLST     393      TIP3     H2       HT        0.00000       1.00800           0
      1180 CLST     394      TIP3     OH2      OT        0.00000       15.9994           0
      1181 CLST     394      TIP3     H1       HT        0.00000       1.00800           0
      1182 CLST     394      TIP3     H2       HT        0.00000       1.00800           0
      1183 CLST     395      TIP3     OH2      OT        0.00000       15.9994           0
      1184 CLST     395      TIP3     H1       HT        0.00000       1.00800           0
      1185 CLST     395      TIP3     H2       HT        0.00000       1.00800           0
      1186 CLST     396      TIP3     OH2      OT        0.00000       15.9994           0
      1187 CLST     396      TIP3     H1       HT        0.00000       1.00800           0
      1188 CLST     396      TIP3     H2       HT        0.00000       1.00800           0
      1189 CLST     397      TIP3     OH2      OT        0.00000       15.9994           0
      1190 CLST     397      TIP3     H1       HT        0.00000       1.00800           0
      1191 CLST     397      TIP3     H2       HT        0.00000       1.00800           0
      1192 CLST     398      TIP3     OH2      OT        0.00000       15.9994           0
      1193 CLST     398      TIP3     H1       HT        0.00000       1.00800           0
      1194 CLST     398      TIP3     H2       HT        0.00000       1.00800           0
      1195 CLST     399      TIP3     OH2      OT        0.00000       15.9994           0
      1196 CLST     399      TIP3     H1       HT        0.00000       1.00800           0
      1197 CLST     399      TIP3     H2       HT        0.00000       1.00800           0
      1198 CLST     400      TIP3     OH2      OT        0.00000       15.9994           0
      1199 CLST     400      TIP3     H1       HT        0.00000       1.00800           0
      1200 CLST     400      TIP3     H2       HT        0.00000       1.00800           0
      1201 CLST     401      TIP3     OH2      OT        0.00000       15.9994           0
      1202 CLST     401      TIP3     H1       HT        0.00000       1.00800           0
      1203 CLST     401      TIP3     H2       HT        0.00000       1.00800           0
      1204 CLST     402      TIP3     OH2      OT        0.00000       15.9994           0
      1205 CLST     402      TIP3     H1       HT        0.00000       1.00800           0
      1206 CLST     402      TIP3     H2       HT        0.00000       1.00800           0
      1207 CLST     403      TIP3     OH2      OT        0.00000       15.9994           0
      1208 CLST     403      TIP3     H1       HT        0.00000       1.00800           0
      1209 CLST     403      TIP3     H2       HT        0.00000       1.00800           0
      1210 CLST     404      TIP3     OH2      OT        0.00000       15.9994           0
      1211 CLST     404      TIP3     H1       HT        0.00000       1.00800           0
      1212 CLST     404      TIP3     H2       HT        0.00000       1.00800           0
      1213 CLST     405      TIP3     OH2      OT        0.00000       15.9994           0
      1214 CLST     405      TIP3     H1       HT        0.00000       1.00800           0
      1215 CLST     405      TIP3     H2       HT        0.00000       1.00800           0
      1216 CLST     406      TIP3     OH2      OT        0.00000       15.9994           0
      1217 CLST     406      TIP3     H1       HT        0.00000       1.00800           0
      1218 CLST     406      TIP3     H2       HT        0.00000       1.00800           0
      1219 CLST     407      TIP3     OH2      OT        0.00000       15.9994           0
      1220 CLST     407      TIP3     H1       HT        0.00000       1.00800           0
      1221 CLST     407      TIP3     H2       HT        0.00000       1.00800           0
      1222 CLST     408      TIP3     OH2      OT        0.00000       15.9994           0
      1223 CLST     408      TIP3     H1       HT        0.00000       1.00800           0
      1224 CLST     408      TIP3     H2       HT        0.00000       1.00800           0
      1225 CLST     409      TIP3     OH2      OT        0.00000       15.9994           0
      1226 CLST     409      TIP3     H1       HT        0.00000       1.00800           0
      1227 CLST     409      TIP3     H2       HT        0.00000       1.00800           0
      1228 CLST     410      TIP3     OH2      OT        0.00000       15.9994           0
      1229 CLST     410      TIP3     H1       HT        0.00000       1.00800           0
      1230 CLST     410      TIP3     H2       HT        0.00000       1.00800           0
      1231 CLST     411      TIP3     OH2      OT        0.00000       15.9994           0
      1232 CLST     411      TIP3     H1       HT        0.00000       1.00800           0
      1233 CLST     411      TIP3     H2       HT        0.00000       1.00800           0
      1234 CLST     412      TIP3     OH2      OT        0.00000       15.9994           0
      1235 CLST     412      TIP3     H1       HT        0.00000       1.00800           0
      1236 CLST     412      TIP3     H2       HT        0.00000       1.00800           0
      1237 CLST     413      TIP3     OH2      OT        0.00000       15.9994           0
      1238 CLST     413      TIP3     H1       HT        0.00000       1.00800           0
      1239 CLST     413      TIP3     H2       HT        0.00000       1.00800           0
      1240 CLST     414      TIP3     OH2      OT        0.00000       15.9994           0
      1241 CLST     414      TIP3     H1       HT        0.00000       1.00800           0
      1242 CLST     414      TIP3     H2       HT        0.00000       1.00800           0
      1243 CLST     415      TIP3     OH2      OT        0.00000       15.9994           0
      1244 CLST     415      TIP3     H1       HT        0.00000       1.00800           0
      1245 CLST     415      TIP3     H2       HT        0.00000       1.00800           0
      1246 CLST     416      TIP3     OH2      OT        0.00000       15.9994           0
      1247 CLST     416      TIP3     H1       HT        0.00000       1.00800           0
      1248 CLST     416      TIP3     H2       HT        0.00000       1.00800           0
      1249 CLST     417      TIP3     OH2      OT        0.00000       15.9994           0
      1250 CLST     417      TIP3     H1       HT        0.00000       1.00800           0
      1251 CLST     417      TIP3     H2       HT        0.00000       1.00800           0
      1252 CLST     418      TIP3     OH2      OT        0.00000       15.9994           0
      1253 CLST     418      TIP3     H1       HT        0.00000       1.00800           0
      1254 CLST     418      TIP3     H2       HT        0.00000       1.00800           0
      1255 CLST     419      TIP3     OH2      OT        0.00000       15.9994           0
      1256 CLST     419      TIP3     H1       HT        0.00000       1.00800           0
      1257 CLST     419      TIP3     H2       HT        0.00000       1.00800           0
      1258 CLST     420      TIP3     OH2      OT        0.00000       15.9994           0
      1259 CLST     420      TIP3     H1       HT        0.00000       1.00800           0
      1260 CLST     420      TIP3     H2       HT        0.00000       1.00800           0
      1261 CLST     421      TIP3     OH2      OT        0.00000       15.9994           0
      1262 CLST     421      TIP3     H1       HT        0.00000       1.00800           0
      1263 CLST     421      TIP3     H2       HT        0.00000       1.00800           0
      1264 CLST     422      TIP3     OH2      OT        0.00000       15.9994           0
      1265 CLST     422      TIP3     H1       HT        0.00000       1.00800           0
      1266 CLST     422      TIP3     H2       HT        0.00000       1.00800           0
      1267 CLST     423      TIP3     OH2      OT        0.00000       15.9994           0
      1268 CLST     423      TIP3     H1       HT        0.00000       1.00800           0
      1269 CLST     423      TIP3     H2       HT        0.00000       1.00800           0
      1270 CLST     424      TIP3     OH2      OT        0.00000       15.9994           0
      1271 CLST     424      TIP3     H1       HT        0.00000       1.00800           0
      1272 CLST     424      TIP3     H2       HT        0.00000       1.00800           0
      1273 CLST     425      TIP3     OH2      OT        0.00000       15.9994           0
      1274 CLST     425      TIP3     H1       HT        0.00000       1.00800           0
      1275 CLST     425      TIP3     H2       HT        0.00000       1.00800           0
      1276 CLST     426      TIP3     OH2      OT        0.00000       15.9994           0
      1277 CLST     426      TIP3     H1       HT        0.00000       1.00800           0
      1278 CLST     426      TIP3     H2       HT        0.00000       1.00800           0
      1279 CLST     427      TIP3     OH2      OT        0.00000       15.9994           0
      1280 CLST     427      TIP3     H1       HT        0.00000       1.00800           0
      1281 CLST     427      TIP3     H2       HT        0.00000       1.00800           0
      1282 CLST     428      TIP3     OH2      OT        0.00000       15.9994           0
      1283 CLST     428      TIP3     H1       HT        0.00000       1.00800           0
      1284 CLST     428      TIP3     H2       HT        0.00000       1.00800           0
      1285 CLST     429      TIP3     OH2      OT        0.00000       15.9994           0
      1286 CLST     429      TIP3     H1       HT        0.00000       1.00800           0
      1287 CLST     429      TIP3     H2       HT        0.00000       1.00800           0
      1288 CLST     430      TIP3     OH2      OT        0.00000       15.9994           0
      1289 CLST     430      TIP3     H1       HT        0.00000       1.00800           0
      1290 CLST     430      TIP3     H2       HT        0.00000       1.00800           0
      1291 CLST     431      TIP3     OH2      OT        0.00000       15.9994           0
      1292 CLST     431      TIP3     H1       HT        0.00000       1.00800           0
      1293 CLST     431      TIP3     H2       HT        0.00000       1.00800           0
      1294 CLST     432      TIP3     OH2      OT        0.00000       15.9994           0
      1295 CLST     432      TIP3     H1       HT        0.00000       1.00800           0
      1296 CLST     432      TIP3     H2       HT        0.00000       1.00800           0
      1297 CLST     433      TIP3     OH2      OT        0.00000       15.9994           0
      1298 CLST     433      TIP3     H1       HT        0.00000       1.00800           0
      1299 CLST     433      TIP3     H2       HT        0.00000       1.00800           0
      1300 CLST     434      TIP3     OH2      OT        0.00000       15.9994           0
      1301 CLST     434      TIP3     H1       HT        0.00000       1.00800           0
      1302 CLST     434      TIP3     H2       HT        0.00000       1.00800           0
      1303 CLST     435      TIP3     OH2      OT        0.00000       15.9994           0
      1304 CLST     435      TIP3     H1       HT        0.00000       1.00800           0
      1305 CLST     435      TIP3     H2       HT        0.00000       1.00800           0
      1306 CLST     436      TIP3     OH2      OT        0.00000       15.9994           0
      1307 CLST     436      TIP3     H1       HT        0.00000       1.00800           0
      1308 CLST     436      TIP3     H2       HT        0.00000       1.00800           0
      1309 CLST     437      TIP3     OH2      OT        0.00000       15.9994           0
      1310 CLST     437      TIP3     H1       HT        0.00000       1.00800           0
      1311 CLST     437      TIP3     H2       HT        0.00000       1.00800           0
      1312 CLST     438      TIP3     OH2      OT        0.00000       15.9994           0
      1313 CLST     438      TIP3     H1       HT        0.00000       1.00800           0
      1314 CLST     438      TIP3     H2       HT        0.00000       1.00800           0
      1315 CLST     439      TIP3     OH2      OT        0.00000       15.9994           0
      1316 CLST     439      TIP3     H1       HT        0.00000       1.00800           0
      1317 CLST     439      TIP3     H2       HT        0.00000       1.00800           0
      1318 CLST     440      TIP3     OH2      OT        0.00000       15.9994           0
      1319 CLST     440      TIP3     H1       HT        0.00000       1.00800           0
      1320 CLST     440      TIP3     H2       HT        0.00000       1.00800           0
      1321 CLST     441      TIP3     OH2      OT        0.00000       15.9994           0
      1322 CLST     441      TIP3     H1       HT        0.00000       1.00800           0
      1323 CLST     441      TIP3     H2       HT        0.00000       1.00800           0
      1324 CLST     442      TIP3     OH2      OT        0.00000       15.9994           0
      1325 CLST     442      TIP3     H1       HT        0.00000       1.00800           0
      1326 CLST     442      TIP3     H2       HT        0.00000       1.00800           0
      1327 CLST     443      TIP3     OH2      OT        0.00000       15.9994           0
      1328 CLST     443      TIP3     H1       HT        0.00000       1.00800           0
      1329 CLST     443      TIP3     H2       HT        0.00000       1.00800           0
      1330 CLST     444      TIP3     OH2      OT        0.00000       15.9994           0
      1331 CLST     444      TIP3     H1       HT        0.00000       1.00800           0
      1332 CLST     444      TIP3     H2       HT        0.00000       1.00800           0
      1333 CLST     445      TIP3     OH2      OT        0.00000       15.9994           0
      1334 CLST     445      TIP3     H1       HT        0.00000       1.00800           0
      1335 CLST     445      TIP3     H2       HT        0.00000       1.00800           0
      1336 CLST     446      TIP3     OH2      OT        0.00000       15.9994           0
      1337 CLST     446      TIP3     H1       HT        0.00000       1.00800           0
      1338 CLST     446      TIP3     H2       HT        0.00000       1.00800           0
      1339 CLST     447      TIP3     OH2      OT        0.00000       15.9994           0
      1340 CLST     447      TIP3     H1       HT        0.00000       1.00800           0
      1341 CLST     447      TIP3     H2       HT        0.00000       1.00800           0
      1342 CLST     448      TIP3     OH2      OT        0.00000       15.9994           0
      1343 CLST     448      TIP3     H1       HT        0.00000       1.00800           0
      1344 CLST     448      TIP3     H2       HT        0.00000       1.00800           0
      1345 CLST     449      TIP3     OH2      OT        0.00000       15.9994           0
      1346 CLST     449      TIP3     H1       HT        0.00000       1.00800           0
      1347 CLST     449      TIP3     H2       HT        0.00000       1.00800           0
      1348 CLST     450      TIP3     OH2      OT        0.00000       15.9994           0
      1349 CLST     450      TIP3     H1       HT        0.00000       1.00800           0
      1350 CLST     450      TIP3     H2       HT        0.00000       1.00800           0
      1351 CLST     451      TIP3     OH2      OT        0.00000       15.9994           0
      1352 CLST     451      TIP3     H1       HT        0.00000       1.00800           0
      1353 CLST     451      TIP3     H2       HT        0.00000       1.00800           0
      1354 CLST     452      TIP3     OH2      OT        0.00000       15.9994           0
      1355 CLST     452      TIP3     H1       HT        0.00000       1.00800           0
      1356 CLST     452      TIP3     H2       HT        0.00000       1.00800           0
      1357 CLST     453      TIP3     OH2      OT        0.00000       15.9994           0
      1358 CLST     453      TIP3     H1       HT        0.00000       1.00800           0
      1359 CLST     453      TIP3     H2       HT        0.00000       1.00800           0
      1360 CLST     454      TIP3     OH2      OT        0.00000       15.9994           0
      1361 CLST     454      TIP3     H1       HT        0.00000       1.00800           0
      1362 CLST     454      TIP3     H2       HT        0.00000       1.00800           0
      1363 CLST     455      TIP3     OH2      OT        0.00000       15.9994           0
      1364 CLST     455      TIP3     H1       HT        0.00000       1.00800           0
      1365 CLST     455      TIP3     H2       HT        0.00000       1.00800           0
      1366 CLST     456      TIP3     OH2      OT        0.00000       15.9994           0
      1367 CLST     456      TIP3     H1       HT        0.00000       1.00800           0
      1368 CLST     456      TIP3     H2       HT        0.00000       1.00800           0
      1369 CLST     457      TIP3     OH2      OT        0.00000       15.9994           0
      1370 CLST     457      TIP3     H1       HT        0.00000       1.00800           0
      1371 CLST     457      TIP3     H2       HT        0.00000       1.00800           0
      1372 CLST     458      TIP3     OH2      OT        0.00000       15.9994           0
      1373 CLST     458      TIP3     H1       HT        0.00000       1.00800           0
      1374 CLST     458      TIP3     H2       HT        0.00000       1.00800           0
      1375 CLST     459      TIP3     OH2      OT        0.00000       15.9994           0
      1376 CLST     459      TIP3     H1       HT        0.00000       1.00800           0
      1377 CLST     459      TIP3     H2       HT        0.00000       1.00800           0
      1378 CLST     460      TIP3     OH2      OT        0.00000       15.9994           0
      1379 CLST     460      TIP3     H1       HT        0.00000       1.00800           0
      1380 CLST     460      TIP3     H2       HT        0.00000       1.00800           0
      1381 CLST     461      TIP3     OH2      OT        0.00000       15.9994           0
      1382 CLST     461      TIP3     H1       HT        0.00000       1.00800           0
      1383 CLST     461      TIP3     H2       HT        0.00000       1.00800           0
      1384 CLST     462      TIP3     OH2      OT        0.00000       15.9994           0
      1385 CLST     462      TIP3     H1       HT        0.00000       1.00800           0
      1386 CLST     462      TIP3     H2       HT        0.00000       1.00800           0
      1387 CLST     463      TIP3     OH2      OT        0.00000       15.9994           0
      1388 CLST     463      TIP3     H1       HT        0.00000       1.00800           0
      1389 CLST     463      TIP3     H2       HT        0.00000       1.00800           0
      1390 CLST     464      TIP3     OH2      OT        0.00000       15.9994           0
      1391 CLST     464      TIP3     H1       HT        0.00000       1.00800           0
      1392 CLST     464      TIP3     H2       HT        0.00000       1.00800           0
      1393 CLST     465      TIP3     OH2      OT        0.00000       15.9994           0
      1394 CLST     465      TIP3     H1       HT        0.00000       1.00800           0
      1395 CLST     465      TIP3     H2       HT        0.00000       1.00800           0
      1396 CLST     466      TIP3     OH2      OT        0.00000       15.9994           0
      1397 CLST     466      TIP3     H1       HT        0.00000       1.00800           0
      1398 CLST     466      TIP3     H2       HT        0.00000       1.00800           0
      1399 CLST     467      TIP3     OH2      OT        0.00000       15.9994           0
      1400 CLST     467      TIP3     H1       HT        0.00000       1.00800           0
      1401 CLST     467      TIP3     H2       HT        0.00000       1.00800           0
      1402 CLST     468      TIP3     OH2      OT        0.00000       15.9994           0
      1403 CLST     468      TIP3     H1       HT        0.00000       1.00800           0
      1404 CLST     468      TIP3     H2       HT        0.00000       1.00800           0
      1405 CLST     469      TIP3     OH2      OT        0.00000       15.9994           0
      1406 CLST     469      TIP3     H1       HT        0.00000       1.00800           0
      1407 CLST     469      TIP3     H2       HT        0.00000       1.00800           0
      1408 CLST     470      TIP3     OH2      OT        0.00000       15.9994           0
      1409 CLST     470      TIP3     H1       HT        0.00000       1.00800           0
      1410 CLST     470      TIP3     H2       HT        0.00000       1.00800           0
      1411 CLST     471      TIP3     OH2      OT        0.00000       15.9994           0
      1412 CLST     471      TIP3     H1       HT        0.00000       1.00800           0
      1413 CLST     471      TIP3     H2       HT        0.00000       1.00800           0
      1414 CLST     472      TIP3     OH2      OT        0.00000       15.9994           0
      1415 CLST     472      TIP3     H1       HT        0.00000       1.00800           0
      1416 CLST     472      TIP3     H2       HT        0.00000       1.00800           0
      1417 CLST     473      TIP3     OH2      OT        0.00000       15.9994           0
      1418 CLST     473      TIP3     H1       HT        0.00000       1.00800           0
      1419 CLST     473      TIP3     H2       HT        0.00000       1.00800           0
      1420 CLST     474      TIP3     OH2      OT        0.00000       15.9994           0
      1421 CLST     474      TIP3     H1       HT        0.00000       1.00800           0
      1422 CLST     474      TIP3     H2       HT        0.00000       1.00800           0
      1423 CLST     475      TIP3     OH2      OT        0.00000       15.9994           0
      1424 CLST     475      TIP3     H1       HT        0.00000       1.00800           0
      1425 CLST     475      TIP3     H2       HT        0.00000       1.00800           0
      1426 CLST     476      TIP3     OH2      OT        0.00000       15.9994           0
      1427 CLST     476      TIP3     H1       HT        0.00000       1.00800           0
      1428 CLST     476      TIP3     H2       HT        0.00000       1.00800           0
      1429 CLST     477      TIP3     OH2      OT        0.00000       15.9994           0
      1430 CLST     477      TIP3     H1       HT        0.00000       1.00800           0
      1431 CLST     477      TIP3     H2       HT        0.00000       1.00800           0
      1432 CLST     478      TIP3     OH2      OT        0.00000       15.9994           0
      1433 CLST     478      TIP3     H1       HT        0.00000       1.00800           0
      1434 CLST     478      TIP3     H2       HT        0.00000       1.00800           0
      1435 CLST     479      TIP3     OH2      OT        0.00000       15.9994           0
      1436 CLST     479      TIP3     H1       HT        0.00000       1.00800           0
      1437 CLST     479      TIP3     H2       HT        0.00000       1.00800           0
      1438 CLST     480      TIP3     OH2      OT        0.00000       15.9994           0
      1439 CLST     480      TIP3     H1       HT        0.00000       1.00800           0
      1440 CLST     480      TIP3     H2       HT        0.00000       1.00800           0
      1441 CLST     481      TIP3     OH2      OT        0.00000       15.9994           0
      1442 CLST     481      TIP3     H1       HT        0.00000       1.00800           0
      1443 CLST     481      TIP3     H2       HT        0.00000       1.00800           0
      1444 CLST     482      TIP3     OH2      OT        0.00000       15.9994           0
      1445 CLST     482      TIP3     H1       HT        0.00000       1.00800           0
      1446 CLST     482      TIP3     H2       HT        0.00000       1.00800           0
      1447 CLST     483      TIP3     OH2      OT        0.00000       15.9994           0
      1448 CLST     483      TIP3     H1       HT        0.00000       1.00800           0
      1449 CLST     483      TIP3     H2       HT        0.00000       1.00800           0
      1450 CLST     484      TIP3     OH2      OT        0.00000       15.9994           0
      1451 CLST     484      TIP3     H1       HT        0.00000       1.00800           0
      1452 CLST     484      TIP3     H2       HT        0.00000       1.00800           0
      1453 CLST     485      TIP3     OH2      OT        0.00000       15.9994           0
      1454 CLST     485      TIP3     H1       HT        0.00000       1.00800           0
      1455 CLST     485      TIP3     H2       HT        0.00000       1.00800           0
      1456 CLST     486      TIP3     OH2      OT        0.00000       15.9994           0
      1457 CLST     486      TIP3     H1       HT        0.00000       1.00800           0
      1458 CLST     486      TIP3     H2       HT        0.00000       1.00800           0
      1459 CLST     487      TIP3     OH2      OT        0.00000       15.9994           0
      1460 CLST     487      TIP3     H1       HT        0.00000       1.00800           0
      1461 CLST     487      TIP3     H2       HT        0.00000       1.00800           0
      1462 CLST     488      TIP3     OH2      OT        0.00000       15.9994           0
      1463 CLST     488      TIP3     H1       HT        0.00000       1.00800           0
      1464 CLST     488      TIP3     H2       HT        0.00000       1.00800           0
      1465 CLST     489      TIP3     OH2      OT        0.00000       15.9994           0
      1466 CLST     489      TIP3     H1       HT        0.00000       1.00800           0
      1467 CLST     489      TIP3     H2       HT        0.00000       1.00800           0
      1468 CLST     490      TIP3     OH2      OT        0.00000       15.9994           0
      1469 CLST     490      TIP3     H1       HT        0.00000       1.00800           0
      1470 CLST     490      TIP3     H2       HT        0.00000       1.00800           0
      1471 CLST     491      TIP3     OH2      OT        0.00000       15.9994           0
      1472 CLST     491      TIP3     H1       HT        0.00000       1.00800           0
      1473 CLST     491      TIP3     H2       HT        0.00000       1.00800           0
      1474 CLST     492      TIP3     OH2      OT        0.00000       15.9994           0
      1475 CLST     492      TIP3     H1       HT        0.00000       1.00800           0
      1476 CLST     492      TIP3     H2       HT        0.00000       1.00800           0
      1477 CLST     493      TIP3     OH2      OT        0.00000       15.9994           0
      1478 CLST     493      TIP3     H1       HT        0.00000       1.00800           0
      1479 CLST     493      TIP3     H2       HT        0.00000       1.00800           0
      1480 CLST     494      TIP3     OH2      OT        0.00000       15.9994           0
      1481 CLST     494      TIP3     H1       HT        0.00000       1.00800           0
      1482 CLST     494      TIP3     H2       HT        0.00000       1.00800           0
      1483 CLST     495      TIP3     OH2      OT        0.00000       15.9994           0
      1484 CLST     495      TIP3     H1       HT        0.00000       1.00800           0
      1485 CLST     495      TIP3     H2       HT        0.00000       1.00800           0
      1486 CLST     496      TIP3     OH2      OT        0.00000       15.9994           0
      1487 CLST     496      TIP3     H1       HT        0.00000       1.00800           0
      1488 CLST     496      TIP3     H2       HT        0.00000       1.00800           0
      1489 CLST     497      TIP3     OH2      OT        0.00000       15.9994           0
      1490 CLST     497      TIP3     H1       HT        0.00000       1.00800           0
      1491 CLST     497      TIP3     H2       HT        0.00000       1.00800           0
      1492 CLST     498      TIP3     OH2      OT        0.00000       15.9994           0
      1493 CLST     498      TIP3     H1       HT        0.00000       1.00800           0
      1494 CLST     498      TIP3     H2       HT        0.00000       1.00800           0
      1495 CLST     499      TIP3     OH2      OT        0.00000       15.9994           0
      1496 CLST     499      TIP3     H1       HT        0.00000       1.00800           0
      1497 CLST     499      TIP3     H2       HT        0.00000       1.00800           0
      1498 CLST     500      TIP3     OH2      OT        0.00000       15.9994           0
      1499 CLST     500      TIP3     H1       HT        0.00000       1.00800           0
      1500 CLST     500      TIP3     H2       HT        0.00000       1.00800           0
      1501 CLST     501      TIP3     OH2      OT        0.00000       15.9994           0
      1502 CLST     501      TIP3     H1       HT        0.00000       1.00800           0
      1503 CLST     501      TIP3     H2       HT        0.00000       1.00800           0
      1504 CLST     502      TIP3     OH2      OT        0.00000       15.9994           0
      1505 CLST     502      TIP3     H1       HT        0.00000       1.00800           0
      1506 CLST     502      TIP3     H2       HT        0.00000       1.00800           0
      1507 CLST     503      TIP3     OH2      OT        0.00000       15.9994           0
      1508 CLST     503      TIP3     H1       HT        0.00000       1.00800           0
      1509 CLST     503      TIP3     H2       HT        0.00000       1.00800           0
      1510 CLST     504      TIP3     OH2      OT        0.00000       15.9994           0
      1511 CLST     504      TIP3     H1       HT        0.00000       1.00800           0
      1512 CLST     504      TIP3     H2       HT        0.00000       1.00800           0
      1513 CLST     505      TIP3     OH2      OT        0.00000       15.9994           0
      1514 CLST     505      TIP3     H1       HT        0.00000       1.00800           0
      1515 CLST     505      TIP3     H2       HT        0.00000       1.00800           0
      1516 CLST     506      TIP3     OH2      OT        0.00000       15.9994           0
      1517 CLST     506      TIP3     H1       HT        0.00000       1.00800           0
      1518 CLST     506      TIP3     H2       HT        0.00000       1.00800           0
      1519 CLST     507      TIP3     OH2      OT        0.00000       15.9994           0
      1520 CLST     507      TIP3     H1       HT        0.00000       1.00800           0
      1521 CLST     507      TIP3     H2       HT        0.00000       1.00800           0
      1522 CLST     508      TIP3     OH2      OT        0.00000       15.9994           0
      1523 CLST     508      TIP3     H1       HT        0.00000       1.00800           0
      1524 CLST     508      TIP3     H2       HT        0.00000       1.00800           0
      1525 CLST     509      TIP3     OH2      OT        0.00000       15.9994           0
      1526 CLST     509      TIP3     H1       HT        0.00000       1.00800           0
      1527 CLST     509      TIP3     H2       HT        0.00000       1.00800           0
      1528 CLST     510      TIP3     OH2      OT        0.00000       15.9994           0
      1529 CLST     510      TIP3     H1       HT        0.00000       1.00800           0
      1530 CLST     510      TIP3     H2       HT        0.00000       1.00800           0
      1531 CLST     511      TIP3     OH2      OT        0.00000       15.9994           0
      1532 CLST     511      TIP3     H1       HT        0.00000       1.00800           0
      1533 CLST     511      TIP3     H2       HT        0.00000       1.00800           0
      1534 CLST     512      TIP3     OH2      OT        0.00000       15.9994           0
      1535 CLST     512      TIP3     H1       HT        0.00000       1.00800           0
      1536 CLST     512      TIP3     H2       HT        0.00000       1.00800           0
      1537 CLST     513      TIP3     OH2      OT        0.00000       15.9994           0
      1538 CLST     513      TIP3     H1       HT        0.00000       1.00800           0
      1539 CLST     513      TIP3     H2       HT        0.00000       1.00800           0
      1540 CLST     514      TIP3     OH2      OT        0.00000       15.9994           0
      1541 CLST     514      TIP3     H1       HT        0.00000       1.00800           0
      1542 CLST     514      TIP3     H2       HT        0.00000       1.00800           0
      1543 CLST     515      TIP3     OH2      OT        0.00000       15.9994           0
      1544 CLST     515      TIP3     H1       HT        0.00000       1.00800           0
      1545 CLST     515      TIP3     H2       HT        0.00000       1.00800           0
      1546 CLST     516      TIP3     OH2      OT        0.00000       15.9994           0
      1547 CLST     516      TIP3     H1       HT        0.00000       1.00800           0
      1548 CLST     516      TIP3     H2       HT        0.00000       1.00800           0
      1549 CLST     517      TIP3     OH2      OT        0.00000       15.9994           0
      1550 CLST     517      TIP3     H1       HT        0.00000       1.00800           0
      1551 CLST     517      TIP3     H2       HT        0.00000       1.00800           0
      1552 CLST     518      TIP3     OH2      OT        0.00000       15.9994           0
      1553 CLST     518      TIP3     H1       HT        0.00000       1.00800           0
      1554 CLST     518      TIP3     H2       HT        0.00000       1.00800           0
      1555 CLST     519      TIP3     OH2      OT        0.00000       15.9994           0
      1556 CLST     519      TIP3     H1       HT        0.00000       1.00800           0
      1557 CLST     519      TIP3     H2       HT        0.00000       1.00800           0
      1558 CLST     520      TIP3     OH2      OT        0.00000       15.9994           0
      1559 CLST     520      TIP3     H1       HT        0.00000       1.00800           0
      1560 CLST     520      TIP3     H2       HT        0.00000       1.00800           0
      1561 CLST     521      TIP3     OH2      OT        0.00000       15.9994           0
      1562 CLST     521      TIP3     H1       HT        0.00000       1.00800           0
      1563 CLST     521      TIP3     H2       HT        0.00000       1.00800           0
      1564 CLST     522      TIP3     OH2      OT        0.00000       15.9994           0
      1565 CLST     522      TIP3     H1       HT        0.00000       1.00800           0
      1566 CLST     522      TIP3     H2       HT        0.00000       1.00800           0
      1567 CLST     523      TIP3     OH2      OT        0.00000       15.9994           0
      1568 CLST     523      TIP3     H1       HT        0.00000       1.00800           0
      1569 CLST     523      TIP3     H2       HT        0.00000       1.00800           0
      1570 CLST     524      TIP3     OH2      OT        0.00000       15.9994           0
      1571 CLST     524      TIP3     H1       HT        0.00000       1.00800           0
      1572 CLST     524      TIP3     H2       HT        0.00000       1.00800           0
      1573 CLST     525      TIP3     OH2      OT        0.00000       15.9994           0
      1574 CLST     525      TIP3     H1       HT        0.00000       1.00800           0
      1575 CLST     525      TIP3     H2       HT        0.00000       1.00800           0
      1576 CLST     526      TIP3     OH2      OT        0.00000       15.9994           0
      1577 CLST     526      TIP3     H1       HT        0.00000       1.00800           0
      1578 CLST     526      TIP3     H2       HT        0.00000       1.00800           0
      1579 CLST     527      TIP3     OH2      OT        0.00000       15.9994           0
      1580 CLST     527      TIP3     H1       HT        0.00000       1.00800           0
      1581 CLST     527      TIP3     H2       HT        0.00000       1.00800           0
      1582 CLST     528      TIP3     OH2      OT        0.00000       15.9994           0
      1583 CLST     528      TIP3     H1       HT        0.00000       1.00800           0
      1584 CLST     528      TIP3     H2       HT        0.00000       1.00800           0
      1585 CLST     529      TIP3     OH2      OT        0.00000       15.9994           0
      1586 CLST     529      TIP3     H1       HT        0.00000       1.00800           0
      1587 CLST     529      TIP3     H2       HT        0.00000       1.00800           0
      1588 CLST     530      TIP3     OH2      OT        0.00000       15.9994           0
      1589 CLST     530      TIP3     H1       HT        0.00000       1.00800           0
      1590 CLST     530      TIP3     H2       HT        0.00000       1.00800           0
      1591 CLST     531      TIP3     OH2      OT        0.00000       15.9994           0
      1592 CLST     531      TIP3     H1       HT        0.00000       1.00800           0
      1593 CLST     531      TIP3     H2       HT        0.00000       1.00800           0
      1594 CLST     532      TIP3     OH2      OT        0.00000       15.9994           0
      1595 CLST     532      TIP3     H1       HT        0.00000       1.00800           0
      1596 CLST     532      TIP3     H2       HT        0.00000       1.00800           0
      1597 CLST     533      TIP3     OH2      OT        0.00000       15.9994           0
      1598 CLST     533      TIP3     H1       HT        0.00000       1.00800           0
      1599 CLST     533      TIP3     H2       HT        0.00000       1.00800           0
      1600 CLST     534      TIP3     OH2      OT        0.00000       15.9994           0
      1601 CLST     534      TIP3     H1       HT        0.00000       1.00800           0
      1602 CLST     534      TIP3     H2       HT        0.00000       1.00800           0
      1603 CLST     535      TIP3     OH2      OT        0.00000       15.9994           0
      1604 CLST     535      TIP3     H1       HT        0.00000       1.00800           0
      1605 CLST     535      TIP3     H2       HT        0.00000       1.00800           0
      1606 CLST     536      TIP3     OH2      OT        0.00000       15.9994           0
      1607 CLST     536      TIP3     H1       HT        0.00000       1.00800           0
      1608 CLST     536      TIP3     H2       HT        0.00000       1.00800           0
      1609 CLST     537      TIP3     OH2      OT        0.00000       15.9994           0
      1610 CLST     537      TIP3     H1       HT        0.00000       1.00800           0
      1611 CLST     537      TIP3     H2       HT        0.00000       1.00800           0
      1612 CLST     538      TIP3     OH2      OT        0.00000       15.9994           0
      1613 CLST     538      TIP3     H1       HT        0.00000       1.00800           0
      1614 CLST     538      TIP3     H2       HT        0.00000       1.00800           0
      1615 CLST     539      TIP3     OH2      OT        0.00000       15.9994           0
      1616 CLST     539      TIP3     H1       HT        0.00000       1.00800           0
      1617 CLST     539      TIP3     H2       HT        0.00000       1.00800           0
      1618 CLST     540      TIP3     OH2      OT        0.00000       15.9994           0
      1619 CLST     540      TIP3     H1       HT        0.00000       1.00800           0
      1620 CLST     540      TIP3     H2       HT        0.00000       1.00800           0
      1621 CLST     541      TIP3     OH2      OT        0.00000       15.9994           0
      1622 CLST     541      TIP3     H1       HT        0.00000       1.00800           0
      1623 CLST     541      TIP3     H2       HT        0.00000       1.00800           0
      1624 CLST     542      TIP3     OH2      OT        0.00000       15.9994           0
      1625 CLST     542      TIP3     H1       HT        0.00000       1.00800           0
      1626 CLST     542      TIP3     H2       HT        0.00000       1.00800           0
      1627 CLST     543      TIP3     OH2      OT        0.00000       15.9994           0
      1628 CLST     543      TIP3     H1       HT        0.00000       1.00800           0
      1629 CLST     543      TIP3     H2       HT        0.00000       1.00800           0
      1630 CLST     544      TIP3     OH2      OT        0.00000       15.9994           0
      1631 CLST     544      TIP3     H1       HT        0.00000       1.00800           0
      1632 CLST     544      TIP3     H2       HT        0.00000       1.00800           0
      1633 CLST     545      TIP3     OH2      OT        0.00000       15.9994           0
      1634 CLST     545      TIP3     H1       HT        0.00000       1.00800           0
      1635 CLST     545      TIP3     H2       HT        0.00000       1.00800           0
      1636 CLST     546      TIP3     OH2      OT        0.00000       15.9994           0
      1637 CLST     546      TIP3     H1       HT        0.00000       1.00800           0
      1638 CLST     546      TIP3     H2       HT        0.00000       1.00800           0
      1639 CLST     547      TIP3     OH2      OT        0.00000       15.9994           0
      1640 CLST     547      TIP3     H1       HT        0.00000       1.00800           0
      1641 CLST     547      TIP3     H2       HT        0.00000       1.00800           0
      1642 CLST     548      TIP3     OH2      OT        0.00000       15.9994           0
      1643 CLST     548      TIP3     H1       HT        0.00000       1.00800           0
      1644 CLST     548      TIP3     H2       HT        0.00000       1.00800           0

      1644 !NBOND: bonds
         1         2         1         3         2         3         4         5
         4         6         5         6         7         8         7         9
         8         9        10        11        10        12        11        12
        13        14        13        15        14        15        16        17
        16        18        17        18        19        20        19        21
        20        21        22        23        22        24        23        24
        25        26        25        27        26        27        28        29
        28        30        29        30        31        32        31        33
        32        33        34        35        34        36        35        36
        37        38        37        39        38        39        40        41
        40        42        41        42        43        44        43        45
        44        45        46        47        46        48        47        48
        49        50        49        51        50        51        52        53
        52        54        53        54        55        56        55        57
        56        57        58        59        58        60        59        60
        61        62        61        63        62        63        64        65
        64        66        65        66        67        68        67        69
        68        69        70        71        70        72        71        72
        73        74        73        75        74        75        76        77
        76        78        77        78        79        80        79        81
        80        81        82        83        82        84        83        84
        85        86        85        87        86        87        88        89
        88        90        89        90        91        92        91        93
        92        93        94        95        94        96        95        96
        97        98        97        99        98        99       100       101
       100       102       101       102       103       104       103       105
       104       105       106       107       106       108       107       108
       109       110       109       111       110       111       112       113
       112       114       113       114       115       116       115       117
       116       117       118       119       118       120       119       120
       121       122       121       123       122       123       124       125
       124       126       125       126       127       128       127       129
       128       129       130       131       130       132       131       132
       133       134       133       135       134       135       136       137
       136       138       137       138       139       140       139       141
       140       141       142       143       142       144       143       144
       145       146       145       147       146       147       148       149
       148       150       149       150       151       152       151       153
       152       153       154       155       154       156       155       156
       157       158       157       159       158       159       160       161
       160       162       161       162       163       164       163       165
       164       165       166       167       166       168       167       168
       169       170       169       171       170       171       172       173
       172       174       173       174       175       176       175       177
       176       177       178       179       178       180       179       180
       181       182       181       183       182       183       184       185
       184       186       185       186       187       188       187       189
       188       189       190       191       190       192       191       192
       193       194       193       195       194       195       196       197
       196       198       197       198       199       200       199       201
       200       201       202       203       202       204       203       204
       205       206       205       207       206       207       208       209
       208       210       209       210       211       212       211       213
       212       213       214       215       214       216       215       216
       217       218       217       219       218       219       220       221
       220       222       221       222       223       224       223       225
       224       225       226       227       226       228       227       228
       229       230       229       231       230       231       232       233
       232       234       233       234       235       236       235       237
       236       237       238       239       238       240       239       240
       241       242       241       243       242       243       244       245
       244       246       245       246       247       248       247       249
       248       249       250       251       250       252       251       252
       253       254       253       255       254       255       256       257
       256       258       257       258       259       260       259       261
       260       261       262       263       262       264       263       264
       265       266       265       267       266       267       268       269
       268       270       269       270       271       272       271       273
       272       273       274       275       274       276       275       276
       277       278       277       279       278       279       280       281
       280       282       281       282       283       284       283       285
       284       285       286       287       286       288       287       288
       289       290       289       291       290       291       292       293
       292       294       293       294       295       296       295       297
       296       297       298       299       298       300       299       300
       301       302       301       303       302       303       304       305
       304       306       305       306       307       308       307       309
       308       309       310       311       310       312       311       312
       313       314       313       315       314       315       316       317
       316       318       317       318       319       320       319       321
       320       321       322       323       322       324       323       324
       325       326       325       327       326       327       328       329
       328       330       329       330       331       332       331       333
       332       333       334       335       334       336       335       336
       337       338       337       339       338       339       340       341
       340       342       341       342       343       344       343       345
       344       345       346       347       346       348       347       348
       349       350       349       351       350       351       352       353
       352       354       353       354       355       356       355       357
       356       357       358       359       358       360       359       360
       361       362       361       363       362       363       364       365
       364       366       365       366       367       368       367       369
       368       369       370       371       370       372       371       372
       373       374       373       375       374       375       376       377
       376       378       377       378       379       380       379       381
       380       381       382       383       382       384       383       384
       385       386       385       387       386       387       388       389
       388       390       389       390       391       392       391       393
       392       393       394       395       394       396       395       396
       397       398       397       399       398       399       400       401
       400       402       401       402       403       404       403       405
       404       405       406       407       406       408       407       408
       409       410       409       411       410       411       412       413
       412       414       413       414       415       416       415       417
       416       417       418       419       418       420       419       420
       421       422       421       423       422       423       424       425
       424       426       425       426       427       428       427       429
       428       429       430       431       430       432       431       432
       433       434       433       435       434       435       436       437
       436       438       437       438       439       440       439       441
       440       441       442       443       442       444       443       444
       445       446       445       447       446       447       448       449
       448       450       449       450       451       452       451       453
       452       453       454       455       454       456       455       456
       457       458       457       459       458       459       460       461
       460       462       461       462       463       464       463       465
       464       465       466       467       466       468       467       468
       469       470       469       471       470       471       472       473
       472       474       473       474       475       476       475       477
       476       477       478       479       478       480       479       480
       481       482       481       483       482       483       484       485
       484       486       485       486       487       488       487       489
       488       489       490       491       490       492       491       492
       493       494       493       495       494       495       496       497
       496       498       497       498       499       500       499       501
       500       501       502       503       502       504       503       504
       505       506       505       507       506       507       508       509
       508       510       509       510       511       512       511       513
       512       513       514       515       514       516       515       516
       517       518       517       519       518       519       520       521
       520       522       521       522       523       524       523       525
       524       525       526       527       526       528       527       528
       529       530       529       531       530       531       532       533
       532       534       533       534       535       536       535       537
       536       537       538       539       538       540       539       540
       541       542       541       543       542       543       544       545
       544       546       545       546       547       548       547       549
       548       549       550       551       550       552       551       552
       553       554       553       555       554       555       556       557
       556       558       557       558       559       560       559       561
       560       561       562       563       562       564       563       564
       565       566       565       567       566       567       568       569
       568       570       569       570       571       572       571       573
       572       573       574       575       574       576       575       576
       577       578       577       579       578       579       580       581
       580       582       581       582       583       584       583       585
       584       585       586       587       586       588       587       588
       589       590       589       591       590       591       592       593
       592       594       593       594       595       596       595       597
       596       597       598       599       598       600       599       600
       601       602       601       603       602       603       604       605
       604       606       605       606       607       608       607       609
       608       609       610       611       610       612       611       612
       613       614       613       615       614       615       616       617
       616       618       617       618       619       620       619       621
       620       621       622       623       622       624       623       624
       625       626       625       627       626       627       628       629
       628       630       629       630       631       632       631       633
       632       633       634       635       634       636       635       636
       637       638       637       639       638       639       640       641
       640       642       641       642       643       644       643       645
       644       645       646       647       646       648       647       648
       649       650       649       651       650       651       652       653
       652       654       653       654       655       656       655       657
       656       657       658       659       658       660       659       660
       661       662       661       663       662       663       664       665
       664       666       665       666       667       668       667       669
       668       669       670       671       670       672       671       672
       673       674       673       675       674       675       676       677
       676       678       677       678       679       680       679       681
       680       681       682       683       682       684       683       684
       685       686       685       687       686       687       688       689
       688       690       689       690       691       692       691       693
       692       693       694       695       694       696       695       696
       697       698       697       699       698       699       700       701
       700       702       701       702       703       704       703       705
       704       705       706       707       706       708       707       708
       709       710       709       711       710       711       712       713
       712       714       713       714       715       716       715       717
       716       717       718       719       718       720       719       720
       721       722       721       723       722       723       724       725
       724       726       725       726       727       728       727       729
       728       729       730       731       730       732       731       732
       733       734       733       735       734       735       736       737
       736       738       737       738       739       740       739       741
       740       741       742       743       742       744       743       744
       745       746       745       747       746       747       748       749
       748       750       749       750       751       752       751       753
       752       753       754       755       754       756       755       756
       757       758       757       759       758       759       760       761
       760       762       761       762       763       764       763       765
       764       765       766       767       766       768       767       768
       769       770       769       771       770       771       772       773
       772       774       773       774       775       776       775       777
       776       777       778       779       778       780       779       780
       781       782       781       783       782       783       784       785
       784       786       785       786       787       788       787       789
       788       789       790       791       790       792       791       792
       793       794       793       795       794       795       796       797
       796       798       797       798       799       800       799       801
       800       801       802       803       802       804       803       804
       805       806       805       807       806       807       808       809
       808       810       809       810       811       812       811       813
       812       813       814       815       814       816       815       816
       817       818       817       819       818       819       820       821
       820       822       821       822       823       824       823       825
       824       825       826       827       826       828       827       828
       829       830       829       831       830       831       832       833
       832       834       833       834       835       836       835       837
       836       837       838       839       838       840       839       840
       841       842       841       843       842       843       844       845
       844       846       845       846       847       848       847       849
       848       849       850       851       850       852       851       852
       853       854       853       855       854       855       856       857
       856       858       857       858       859       860       859       861
       860       861       862       863       862       864       863       864
       865       866       865       867       866       867       868       869
       868       870       869       870       871       872       871       873
       872       873       874       875       874       876       875       876
       877       878       877       879       878       879       880       881
       880       882       881       882       883       884       883       885
       884       885       886       887       886       888       887       888
       889       890       889       891       890       891       892       893
       892       894       893       894       895       896       895       897
       896       897       898       899       898       900       899       900
       901       902       901       903       902       903       904       905
       904       906       905       906       907       908       907       909
       908       909       910       911       910       912       911       912
       913       914       913       915       914       915       916       917
       916       918       917       918       919       920       919       921
       920       921       922       923       922       924       923       924
       925       926       925       927       926       927       928       929
       928       930       929       930       931       932       931       933
       932       933       934       935       934       936       935       936
       937       938       937       939       938       939       940       941
       940       942       941       942       943       944       943       945
       944       945       946       947       946       948       947       948
       949       950       949       951       950       951       952       953
       952       954       953       954       955       956       955       957
       956       957       958       959       958       960       959       960
       961       962       961       963       962       963       964       965
       964       966       965       966       967       968       967       969
       968       969       970       971       970       972       971       972
       973       974       973       975       974       975       976       977
       976       978       977       978       979       980       979       981
       980       981       982       983       982       984       983       984
       985       986       985       987       986       987       988       989
       988       990       989       990       991       992       991       993
       992       993       994       995       994       996       995       996
       997       998       997       999       998       999      1000      1001
      1000      1002      1001      1002      1003      1004      1003      1005
      1004      1005      1006      1007      1006      1008      1007      1008
      1009      1010      1009      1011      1010      1011      1012      1013
      1012      1014      1013      1014      1015      1016      1015      1017
      1016      1017      1018      1019      1018      1020      1019      1020
      1021      1022      1021      1023      1022      1023      1024      1025
      1024      1026      1025      1026      1027      1028      1027      1029
      1028      1029      1030      1031      1030      1032      1031      1032
      1033      1034      1033      1035      1034      1035      1036      1037
      1036      1038      1037      1038      1039      1040      1039      1041
      1040      1041      1042      1043      1042      1044      1043      1044
      1045      1046      1045      1047      1046      1047      1048      1049
      1048      1050      1049      1050      1051      1052      1051      1053
      1052      1053      1054      1055      1054      1056      1055      1056
      1057      1058      1057      1059      1058      1059      1060      1061
      1060      1062      1061      1062      1063      1064      1063      1065
      1064      1065      1066      1067      1066      1068      1067      1068
      1069      1070      1069      1071      1070      1071      1072      1073
      1072      1074      1073      1074      1075      1076      1075      1077
      1076      1077      1078      1079      1078      1080      1079      1080
      1081      1082      1081      1083      1082      1083      1084      1085
      1084      1086      1085      1086      1087      1088      1087      1089
      1088      1089      1090      1091      1090      1092      1091      1092
      1093      1094      1093      1095      1094      1095      1096      1097
      1096      1098      1097      1098      1099      1100      1099      1101
      1100      1101      1102      1103      1102      1104      1103      1104
      1105      1106      1105      1107      1106      1107      1108      1109
      1108      1110      1109      1110      1111      1112      1111      1113
      1112      1113      1114      1115      1114      1116      1115      1116
      1117      1118      1117      1119      1118      1119      1120      1121
      1120      1122      1121      1122      1123      1124      1123      1125
      1124      1125      1126      1127      1126      1128      1127      1128
      1129      1130      1129      1131      1130      1131      1132      1133
      1132      1134      1133      1134      1135      1136      1135      1137
      1136      1137      1138      1139      1138      1140      1139      1140
      1141      1142      1141      1143      1142      1143      1144      1145
      1144      1146      1145      1146      1147      1148      1147      1149
      1148      1149      1150      1151      1150      1152      1151      1152
      1153      1154      1153      1155      1154      1155      1156      1157
      1156      1158      1157      1158      1159      1160      1159      1161
      1160      1161      1162      1163      1162      1164      1163      1164
      1165      1166      1165      1167      1166      1167      1168      1169
      1168      1170      1169      1170      1171      1172      1171      1173
      1172      1173      1174      1175      1174      1176      1175      1176
      1177      1178      1177      1179      1178      1179      1180      1181
      1180      1182      1181      1182      1183      1184      1183      1185
      1184      1185      1186      1187      1186      1188      1187      1188
      1189      1190      1189      1191      1190      1191      1192      1193
      1192      1194      1193      1194      1195      1196      1195      1197
      1196      1197      1198      1199      1198      1200      1199      1200
      1201      1202      1201      1203      1202      1203      1204      1205
      1204      1206      1205      1206      1207      1208      1207      1209
      1208      1209      1210      1211      1210      1212      1211      1212
      1213      1214      1213      1215      1214      1215      1216      1217
      1216      1218      1217      1218      1219      1220      1219      1221
      1220      1221      1222      1223      1222      1224      1223      1224
      1225      1226      1225      1227      1226      1227      1228      1229
      1228      1230      1229      1230      1231      1232      1231      1233
      1232      1233      1234      1235      1234      1236      1235      1236
      1237      1238      1237      1239      1238      1239      1240      1241
      1240      1242      1241      1242      1243      1244      1243      1245
      1244      1245      1246      1247      1246      1248      1247      1248
      1249      1250      1249      1251      1250      1251      1252      1253
      1252      1254      1253      1254      1255      1256      1255      1257
      1256      1257      1258      1259      1258      1260      1259      1260
      1261      1262      1261      1263      1262      1263      1264      1265
      1264      1266      1265      1266      1267      1268      1267      1269
      1268      1269      1270      1271      1270      1272      1271      1272
      1273      1274      1273      1275      1274      1275      1276      1277
      1276      1278      1277      1278      1279      1280      1279      1281
      1280      1281      1282      1283      1282      1284      1283      1284
      1285      1286      1285      1287      1286      1287      1288      1289
      1288      1290      1289      1290      1291      1292      1291      1293
      1292      1293      1294      1295      1294      1296      1295      1296
      1297      1298      1297      1299      1298      1299      1300      1301
      1300      1302      1301      1302      1303      1304      1303      1305
      1304      1305      1306      1307      1306      1308      1307      1308
      1309      1310      1309      1311      1310      1311      1312      1313
      1312      1314      1313      1314      1315      1316      1315      1317
      1316      1317      1318      1319      1318      1320      1319      1320
      1321      1322      1321      1323      1322      1323      1324      1325
      1324      1326      1325      1326      1327      1328      1327      1329
      1328      1329      1330      1331      1330      1332      1331      1332
      1333      1334      1333      1335      1334      1335      1336      1337
      1336      1338      1337      1338      1339      1340      1339      1341
      1340      1341      1342      1343      1342      1344      1343      1344
      1345      1346      1345      1347      1346      1347      1348      1349
      1348      1350      1349      1350      1351      1352      1351      1353
      1352      1353      1354      1355      1354      1356      1355      1356
      1357      1358      1357      1359      1358      1359      1360      1361
      1360      1362      1361      1362      1363      1364      1363      1365
      1364      1365      1366      1367      1366      1368      1367      1368
      1369      1370      1369      1371      1370      1371      1372      1373
      1372      1374      1373      1374      1375      1376      1375      1377
      1376      1377      1378      1379      1378      1380      1379      1380
      1381      1382      1381      1383      1382      1383      1384      1385
      1384      1386      1385      1386      1387      1388      1387      1389
      1388      1389      1390      1391      1390      1392      1391      1392
      1393      1394      1393      1395      1394      1395      1396      1397
      1396      1398      1397      1398      1399      1400      1399      1401
      1400      1401      1402      1403      1402      1404      1403      1404
      1405      1406      1405      1407      1406      1407      1408      1409
      1408      1410      1409      1410      1411      1412      1411      1413
      1412      1413      1414      1415      1414      1416      1415      1416
      1417      1418      1417      1419      1418      1419      1420      1421
      1420      1422      1421      1422      1423      1424      1423      1425
      1424      1425      1426      1427      1426      1428      1427      1428
      1429      1430      1429      1431      1430      1431      1432      1433
      1432      1434      1433      1434      1435      1436      1435      1437
      1436      1437      1438      1439      1438      1440      1439      1440
      1441      1442      1441      1443      1442      1443      1444      1445
      1444      1446      1445      1446      1447      1448      1447      1449
      1448      1449      1450      1451      1450      1452      1451      1452
      1453      1454      1453      1455      1454      1455      1456      1457
      1456      1458      1457      1458      1459      1460      1459      1461
      1460      1461      1462      1463      1462      1464      1463      1464
      1465      1466      1465      1467      1466      1467      1468      1469
      1468      1470      1469      1470      1471      1472      1471      1473
      1472      1473      1474      1475      1474      1476      1475      1476
      1477      1478      1477      1479      1478      1479      1480      1481
      1480      1482      1481      1482      1483      1484      1483      1485
      1484      1485      1486      1487      1486      1488      1487      1488
      1489      1490      1489      1491      1490      1491      1492      1493
      1492      1494      1493      1494      1495      1496      1495      1497
      1496      1497      1498      1499      1498      1500      1499      1500
      1501      1502      1501      1503      1502      1503      1504      1505
      1504      1506      1505      1506      1507      1508      1507      1509
      1508      1509      1510      1511      1510      1512      1511      1512
      1513      1514      1513      1515      1514      1515      1516      1517
      1516      1518      1517      1518      1519      1520      1519      1521
      1520      1521      1522      1523      1522      1524      1523      1524
      1525      1526      1525      1527      1526      1527      1528      1529
      1528      1530      1529      1530      1531      1532      1531      1533
      1532      1533      1534      1535      1534      1536      1535      1536
      1537      1538      1537      1539      1538      1539      1540      1541
      1540      1542      1541      1542      1543      1544      1543      1545
      1544      1545      1546      1547      1546      1548      1547      1548
      1549      1550      1549      1551      1550      1551      1552      1553
      1552      1554      1553      1554      1555      1556      1555      1557
      1556      1557      1558      1559      1558      1560      1559      1560
      1561      1562      1561      1563      1562      1563      1564      1565
      1564      1566      1565      1566      1567      1568      1567      1569
      1568      1569      1570      1571      1570      1572      1571      1572
      1573      1574      1573      1575      1574      1575      1576      1577
      1576      1578      1577      1578      1579      1580      1579      1581
      1580      1581      1582      1583      1582      1584      1583      1584
      1585      1586      1585      1587      1586      1587      1588      1589
      1588      1590      1589      1590      1591      1592      1591      1593
      1592      1593      1594      1595      1594      1596      1595      1596
      1597      1598      1597      1599      1598      1599      1600      1601
      1600      1602      1601      1602      1603      1604      1603      1605
      1604      1605      1606      1607      1606      1608      1607      1608
      1609      1610      1609      1611      1610      1611      1612      1613
      1612      1614      1613      1614      1615      1616      1615      1617
      1616      1617      1618      1619      1618      1620      1619      1620
      1621      1622      1621      1623      1622      1623      1624      1625
      1624      1626      1625      1626      1627      1628      1627      1629
      1628      1629      1630      1631      1630      1632      1631      1632
      1633      1634      1633      1635      1634      1635      1636      1637
      1636      1638      1637      1638      1639      1640      1639      1641
      1640      1641      1642      1643      1642      1644      1643      1644

       548 !NTHETA: angles
         2         1         3         5         4         6         8         7         9
        11        10        12        14        13        15        17        16        18
        20        19        21        23        22        24        26        25        27
        29        28        30        32        31        33        35        34        36
        38        37        39        41        40        42        44        43        45
        47        46        48        50        49        51        53        52        54
        56        55        57        59        58        60        62        61        63
        65        64        66        68        67        69        71        70        72
        74        73        75        77        76        78        80        79        81
        83        82        84        86        85        87        89        88        90
        92        91        93        95        94        96        98        97        99
       101       100       102       104       103       105       107       106       108
       110       109       111       113       112       114       116       115       117
       119       118       120       122       121       123       125       124       126
       128       127       129       131       130       132       134       133       135
       137       136       138       140       139       141       143       142       144
       146       145       147       149       148       150       152       151       153
       155       154       156       158       157       159       161       160       162
       164       163       165       167       166       168       170       169       171
       173       172       174       176       175       177       179       178       180
       182       181       183       185       184       186       188       187       189
       191       190       192       194       193       195       197       196       198
       200       199       201       203       202       204       206       205       207
       209       208       210       212       211       213       215       214       216
       218       217       219       221       220       222       224       223       225
       227       226       228       230       229       231       233       232       234
       236       235       237       239       238       240       242       241       243
       245       244       246       248       247       249       251       250       252
       254       253       255       257       256       258       260       259       261
       263       262       264       266       265       267       269       268       270
       272       271       273       275       274       276       278       277       279
       281       280       282       284       283       285       287       286       288
       290       289       291       293       292       294       296       295       297
       299       298       300       302       301       303       305       304       306
       308       307       309       311       310       312       314       313       315
       317       316       318       320       319       321       323       322       324
       326       325       327       329       328       330       332       331       333
       335       334       336       338       337       339       341       340       342
       344       343       345       347       346       348       350       349       351
       353       352       354       356       355       357       359       358       360
       362       361       363       365       364       366       368       367       369
       371       370       372       374       373       375       377       376       378
       380       379       381       383       382       384       386       385       387
       389       388       390       392       391       393       395       394       396
       398       397       399       401       400       402       404       403       405
       407       406       408       410       409       411       413       412       414
       416       415       417       419       418       420       422       421       423
       425       424       426       428       427       429       431       430       432
       434       433       435       437       436       438       440       439       441
       443       442       444       446       445       447       449       448       450
       452       451       453       455       454       456       458       457       459
       461       460       462       464       463       465       467       466       468
       470       469       471       473       472       474       476       475       477
       479       478       480       482       481       483       485       484       486
       488       487       489       491       490       492       494       493       495
       497       496       498       500       499       501       503       502       504
       506       505       507       509       508       510       512       511       513
       515       514       516       518       517       519       521       520       522
       524       523       525       527       526       528       530       529       531
       533       532       534       536       535       537       539       538       540
       542       541       543       545       544       546       548       547       549
       551       550       552       554       553       555       557       556       558
       560       559       561       563       562       564       566       565       567
       569       568       570       572       571       573       575       574       576
       578       577       579       581       580       582       584       583       585
       587       586       588       590       589       591       593       592       594
       596       595       597       599       598       600       602       601       603
       605       604       606       608       607       609       611       610       612
       614       613       615       617       616       618       620       619       621
       623       622       624       626       625       627       629       628       630
       632       631       633       635       634       636       638       637       639
       641       640       642       644       643       645       647       646       648
       650       649       651       653       652       654       656       655       657
       659       658       660       662       661       663       665       664       666
       668       667       669       671       670       672       674       673       675
       677       676       678       680       679       681       683       682       684
       686       685       687       689       688       690       692       691       693
       695       694       696       698       697       699       701       700       702
       704       703       705       707       706       708       710       709       711
       713       712       714       716       715       717       719       718       720
       722       721       723       725       724       726       728       727       729
       731       730       732       734       733       735       737       736       738
       740       739       741       743       742       744       746       745       747
       749       748       750       752       751       753       755       754       756
       758       757       759       761       760       762       764       763       765
       767       766       768       770       769       771       773       772       774
       776       775       777       779       778       780       782       781       783
       785       784       786       788       787       789       791       790       792
       794       793       795       797       796       798       800       799       801
       803       802       804       806       805       807       809       808       810
       812       811       813       815       814       816       818       817       819
       821       820       822       824       823       825       827       826       828
       830       829       831       833       832       834       836       835       837
       839       838       840       842       841       843       845       844       846
       848       847       849       851       850       852       854       853       855
       857       856       858       860       859       861       863       862       864
       866       865       867       869       868       870       872       871       873
       875       874       876       878       877       879       881       880       882
       884       883       885       887       886       888       890       889       891
       893       892       894       896       895       897       899       898       900
       902       901       903       905       904       906       908       907       909
       911       910       912       914       913       915       917       916       918
       920       919       921       923       922       924       926       925       927
       929       928       930       932       931       933       935       934       936
       938       937       939       941       940       942       944       943       945
       947       946       948       950       949       951       953       952       954
       956       955       957       959       958       960       962       961       963
       965       964       966       968       967       969       971       970       972
       974       973       975       977       976       978       980       979       981
       983       982       984       986       985       987       989       988       990
       992       991       993       995       994       996       998       997       999
      1001      1000      1002      1004      1003      1005      1007      1006      1008
      1010      1009      1011      1013      1012      1014      1016      1015      1017
      1019      1018      1020      1022      1021      1023      1025      1024      1026
      1028      1027      1029      1031      1030      1032      1034      1033      1035
      1037      1036      1038      1040      1039      1041      1043      1042      1044
      1046      1045      1047      1049      1048      1050      1052      1051      1053
      1055      1054      1056      1058      1057      1059      1061      1060      1062
      1064      1063      1065      1067      1066      1068      1070      1069      1071
      1073      1072      1074      1076      1075      1077      1079      1078      1080
      1082      1081      1083      1085      1084      1086      1088      1087      1089
      1091      1090      1092      1094      1093      1095      1097      1096      1098
      1100      1099      1101      1103      1102      1104      1106      1105      1107
      1109      1108      1110      1112      1111      1113      1115      1114      1116
      1118      1117      1119      1121      1120      1122      1124      1123      1125
      1127      1126      1128      1130      1129      1131      1133      1132      1134
      1136      1135      1137      1139      1138      1140      1142      1141      1143
      1145      1144      1146      1148      1147      1149      1151      1150      1152
      1154      1153      1155      1157      1156      1158      1160      1159      1161
      1163      1162      1164      1166      1165      1167      1169      1168      1170
      1172      1171      1173      1175      1174      1176      1178      1177      1179
      1181      1180      1182      1184      1183      1185      1187      1186      1188
      1190      1189      1191      1193      1192      1194      1196      1195      1197
      1199      1198      1200      1202      1201      1203      1205      1204      1206
      1208      1207      1209      1211      1210      1212      1214      1213      1215
      1217      1216      1218      1220      1219      1221      1223      1222      1224
      1226      1225      1227      1229      1228      1230      1232      1231      1233
      1235      1234      1236      1238      1237      1239      1241      1240      1242
      1244      1243      1245      1247      1246      1248      1250      1249      1251
      1253      1252      1254      1256      1255      1257      1259      1258      1260
      1262      1261      1263      1265      1264      1266      1268      1267      1269
      1271      1270      1272      1274      1273      1275      1277      1276      1278
      1280      1279      1281      1283      1282      1284      1286      1285      1287
      1289      1288      1290      1292      1291      1293      1295      1294      1296
      1298      1297      1299      1301      1300      1302      1304      1303      1305
      1307      1306      1308      1310      1309      1311      1313      1312      1314
      1316      1315      1317      1319      1318      1320      1322      1321      1323
      1325      1324      1326      1328      1327      1329      1331      1330      1332
      1334      1333      1335      1337      1336      1338      1340      1339      1341
      1343      1342      1344      1346      1345      1347      1349      1348      1350
      1352      1351      1353      1355      1354      1356      1358      1357      1359
      1361      1360      1362      1364      1363      1365      1367      1366      1368
      1370      1369      1371      1373      1372      1374      1376      1375      1377
      1379      1378      1380      1382      1381      1383      1385      1384      1386
      1388      1387      1389      1391      1390      1392      1394      1393      1395
      1397      1396      1398      1400      1399      1401      1403      1402      1404
      1406      1405      1407      1409      1408      1410      1412      1411      1413
      1415      1414      1416      1418      1417      1419      1421      1420      1422
      1424      1423      1425      1427      1426      1428      1430      1429      1431
      1433      1432      1434      1436      1435      1437      1439      1438      1440
      1442      1441      1443      1445      1444      1446      1448      1447      1449
      1451      1450      1452      1454      1453      1455      1457      1456      1458
      1460      1459      1461      1463      1462      1464      1466      1465      1467
      1469      1468      1470      1472      1471      1473      1475      1474      1476
      1478      1477      1479      1481      1480      1482      1484      1483      1485
      1487      1486      1488      1490      1489      1491      1493      1492      1494
      1496      1495      1497      1499      1498      1500      1502      1501      1503
      1505      1504      1506      1508      1507      1509      1511      1510      1512
      1514      1513      1515      1517      1516      1518      1520      1519      1521
      1523      1522      1524      1526      1525      1527      1529      1528      1530
      1532      1531      1533      1535      1534      1536      1538      1537      1539
      1541      1540      1542      1544      1543      1545      1547      1546      1548
      1550      1549      1551      1553      1552      1554      1556      1555      1557
      1559      1558      1560      1562      1561      1563      1565      1564      1566
      1568      1567      1569      1571      1570      1572      1574      1573      1575
      1577      1576      1578      1580      1579      1581      1583      1582      1584
      1586      1585      1587      1589      1588      1590      1592      1591      1593
      1595      1594      1596      1598      1597      1599      1601      1600      1602
      1604      1603      1605      1607      1606      1608      1610      1609      1611
      1613      1612      1614      1616      1615      1617      1619      1618      1620
      1622      1621      1623      1625      1624      1626      1628      1627      1629
      1631      1630      1632      1634      1633      1635      1637      1636      1638
      1640      1639      1641      1643      1642      1644

         0 !NPHI: dihedrals


         0 !NIMPHI: impropers


         0 !NDON: donors


       548 !NACC: acceptors
         1         0         4         0         7         0        10         0
        13         0        16         0        19         0        22         0
        25         0        28         0        31         0        34         0
        37         0        40         0        43         0        46         0
        49         0        52         0        55         0        58         0
        61         0        64         0        67         0        70         0
        73         0        76         0        79         0        82         0
        85         0        88         0        91         0        94         0
        97         0       100         0       103         0       106         0
       109         0       112         0       115         0       118         0
       121         0       124         0       127         0       130         0
       133         0       136         0       139         0       142         0
       145         0       148         0       151         0       154         0
       157         0       160         0       163         0       166         0
       169         0       172         0       175         0       178         0
       181         0       184         0       187         0       190         0
       193         0       196         0       199         0       202         0
       205         0       208         0       211         0       214         0
       217         0       220         0       223         0       226         0
       229         0       232         0       235         0       238         0
       241         0       244         0       247         0       250         0
       253         0       256         0       259         0       262         0
       265         0       268         0       271         0       274         0
       277         0       280         0       283         0       286         0
       289         0       292         0       295         0       298         0
       301         0       304         0       307         0       310         0
       313         0       316         0       319         0       322         0
       325         0       328         0       331         0       334         0
       337         0       340         0       343         0       346         0
       349         0       352         0       355         0       358         0
       361         0       364         0       367         0       370         0
       373         0       376         0       379         0       382         0
       385         0       388         0       391         0       394         0
       397         0       400         0       403         0       406         0
       409         0       412         0       415         0       418         0
       421         0       424         0       427         0       430         0
       433         0       436         0       439         0       442         0
       445         0       448         0       451         0       454         0
       457         0       460         0       463         0       466         0
       469         0       472         0       475         0       478         0
       481         0       484         0       487         0       490         0
       493         0       496         0       499         0       502         0
       505         0       508         0       511         0       514         0
       517         0       520         0       523         0       526         0
       529         0       532         0       535         0       538         0
       541         0       544         0       547         0       550         0
       553         0       556         0       559         0       562         0
       565         0       568         0       571         0       574         0
       577         0       580         0       583         0       586         0
       589         0       592         0       595         0       598         0
       601         0       604         0       607         0       610         0
       613         0       616         0       619         0       622         0
       625         0       628         0       631         0       634         0
       637         0       640         0       643         0       646         0
       649         0       652         0       655         0       658         0
       661         0       664         0       667         0       670         0
       673         0       676         0       679         0       682         0
       685         0       688         0       691         0       694         0
       697         0       700         0       703         0       706         0
       709         0       712         0       715         0       718         0
       721         0       724         0       727         0       730         0
       733         0       736         0       739         0       742         0
       745         0       748         0       751         0       754         0
       757         0       760         0       763         0       766         0
       769         0       772         0       775         0       778         0
       781         0       784         0       787         0       790         0
       793         0       796         0       799         0       802         0
       805         0       808         0       811         0       814         0
       817         0       820         0       823         0       826         0
       829         0       832         0       835         0       838         0
       841         0       844         0       847         0       850         0
       853         0       856         0       859         0       862         0
       865         0       868         0       871         0       874         0
       877         0       880         0       883         0       886         0
       889         0       892         0       895         0       898         0
       901         0       904         0       907         0       910         0
       913         0       916         0       919         0       922         0
       925         0       928         0       931         0       934         0
       937         0       940         0       943         0       946         0
       949         0       952         0       955         0       958         0
       961         0       964         0       967         0       970         0
       973         0       976         0       979         0       982         0
       985         0       988         0       991         0       994         0
       997         0      1000         0      1003         0      1006         0
      1009         0      1012         0      1015         0      1018         0
      1021         0      1024         0      1027         0      1030         0
      1033         0      1036         0      1039         0      1042         0
      1045         0      1048         0      1051         0      1054         0
      1057         0      1060         0      1063         0      1066         0
      1069         0      1072         0      1075         0      1078         0
      1081         0      1084         0      1087         0      1090         0
      1093         0      1096         0      1099         0      1102         0
      1105         0      1108         0      1111         0      1114         0
      1117         0      1120         0      1123         0      1126         0
      1129         0      1132         0      1135         0      1138         0
      1141         0      1144         0      1147         0      1150         0
      1153         0      1156         0      1159         0      1162         0
      1165         0      1168         0      1171         0      1174         0
      1177         0      1180         0      1183         0      1186         0
      1189         0      1192         0      1195         0      1198         0
      1201         0      1204         0      1207         0      1210         0
      1213         0      1216         0      1219         0      1222         0
      1225         0      1228         0      1231         0      1234         0
      1237         0      1240         0      1243         0      1246         0
      1249         0      1252         0      1255         0      1258         0
      1261         0      1264         0      1267         0      1270         0
      1273         0      1276         0      1279         0      1282         0
      1285         0      1288         0      1291         0      1294         0
      1297         0      1300         0      1303         0      1306         0
      1309         0      1312         0      1315         0      1318         0
      1321         0      1324         0      1327         0      1330         0
      1333         0      1336         0      1339         0      1342         0
      1345         0      1348         0      1351         0      1354         0
      1357         0      1360         0      1363         0      1366         0
      1369         0      1372         0      1375         0      1378         0
      1381         0      1384         0      1387         0      1390         0
      1393         0      1396         0      1399         0      1402         0
      1405         0      1408         0      1411         0      1414         0
      1417         0      1420         0      1423         0      1426         0
      1429         0      1432         0      1435         0      1438         0
      1441         0      1444         0      1447         0      1450         0
      1453         0      1456         0      1459         0      1462         0
      1465         0      1468         0      1471         0      1474         0
      1477         0      1480         0      1483         0      1486         0
      1489         0      1492         0      1495         0      1498         0
      1501         0      1504         0      1507         0      1510         0
      1513         0      1516         0      1519         0      1522         0
      1525         0      1528         0      1531         0      1534         0
      1537         0      1540         0      1543         0      1546         0
      1549         0      1552         0      1555         0      1558         0
      1561         0      1564         0      1567         0      1570         0
      1573         0      1576         0      1579         0      1582         0
      1585         0      1588         0      1591         0      1594         0
      1597         0      1600         0      1603         0      1606         0
      1609         0      1612         0      1615         0      1618         0
      1621         0      1624         0      1627         0      1630         0
      1633         0      1636         0      1639         0      1642         0

         0 !NNB

         0         0         0         0         0         0         0         0
         0         0         0         0         0         0         0         0
         0         0         0         0         0         0         0         0
         0         0         0         0         0         0         0         0
         0         0         0         0         0         0         0         0
         0         0         0         0         0         0         0         0
         0         0         0         0         0         0         0         0
         0         0         0         0         0         0         0         0
         0         0         0         0         0         0         0         0
         0         0         0         0         0         0         0         0
         0         0         0         0         0         0         0         0
         0         0         0         0         0         0         0         0
         0         0         0         0         0         0         0         0
         0         0         0         0         0         0         0         0
         0         0         0         0         0         0         0         0
         0         0         0         0         0         0         0         0
         0         0         0         0         0         0         0         0
         0         0         0         0         0         0         0         0
         0         0         0         0         0         0         0         0
         0         0         0         0         0         0         0         0
         0         0         0         0         0         0         0         0
         0         0         0         0         0         0         0         0
         0         0         0         0         0         0         0         0
         0         0         0         0         0         0         0         0
         0         0         0         0         0         0         0         0
         0         0         0         0         0         0         0         0
         0         0         0         0         0         0         0         0
         0         0         0         0         0         0         0         0
         0         0         0         0         0         0         0         0
         0         0         0         0         0         0         0         0
         0         0         0         0         0         0         0         0
         0         0         0         0         0         0         0         0
         0         0         0         0         0         0         0         0
         0         0         0         0         0         0         0         0
         0         0         0         0         0         0         0         0
         0         0         0         0         0         0         0         0
         0         0         0         0         0         0         0         0
         0         0         0         0         0         0         0         0
         0         0         0         0         0         0         0         0
         0         0         0         0         0         0         0         0
         0         0         0         0         0         0         0         0
         0         0         0         0         0         0         0         0
         0         0         0         0         0         0         0         0
         0         0         0         0         0         0         0         0
         0         0         0         0         0         0         0         0
         0         0         0         0         0         0         0         0
         0         0         0         0         0         0         0         0
         0         0         0         0         0         0         0         0
         0         0         0         0         0         0         0         0
         0         0         0         0         0         0         0         0
         0         0         0         0         0         0         0         0
         0         0         0         0         0         0         0         0
         0         0         0         0         0         0         0         0
         0         0         0         0         0         0         0         0
         0         0         0         0         0         0         0         0
         0         0         0         0         0         0         0         0
         0         0         0         0         0         0         0         0
         0         0         0         0         0         0         0         0
         0         0         0         0         0         0         0         0
         0         0         0         0         0         0         0         0
         0         0         0         0         0         0         0         0
         0         0         0         0         0         0         0         0
         0         0         0         0         0         0         0         0
         0         0         0         0         0         0         0         0
         0         0         0         0         0         0         0         0
         0         0         0         0         0         0         0         0
         0         0         0         0         0         0         0         0
         0         0         0         0         0         0         0         0
         0         0         0         0         0         0         0         0
         0         0         0         0         0         0         0         0
         0         0         0         0         0         0         0         0
         0         0         0         0         0         0         0         0
         0         0         0         0         0         0         0         0
         0         0         0         0         0         0         0         0
         0         0         0         0         0         0         0         0
         0         0         0         0         0         0         0         0
         0         0         0         0         0         0         0         0
         0         0         0         0         0         0         0         0
         0         0         0         0         0         0         0         0
         0         0         0         0         0         0         0         0
         0         0         0         0         0         0         0         0
         0         0         0         0         0         0         0         0
         0         0         0         0         0         0         0         0
         0         0         0         0         0         0         0         0
         0         0         0         0         0         0         0         0
         0         0         0         0         0         0         0         0
         0         0         0         0         0         0         0         0
         0         0         0         0         0         0         0         0
         0         0         0         0         0         0         0         0
         0         0         0         0         0         0         0         0
         0         0         0         0         0         0         0         0
         0         0         0         0         0         0         0         0
         0         0         0         0         0         0         0         0
         0         0         0         0         0         0         0         0
         0         0         0         0         0         0         0         0
         0         0         0         0         0         0         0         0
         0         0         0         0         0         0         0         0
         0         0         0         0         0         0         0         0
         0         0         0         0         0         0         0         0
         0         0         0         0         0         0         0         0
         0         0         0         0         0         0         0         0
         0         0         0         0         0         0         0         0
         0         0         0         0         0         0         0         0
         0         0         0         0         0         0         0         0
         0         0         0         0         0         0         0         0
         0         0         0         0         0         0         0         0
         0         0         0         0         0         0         0         0
         0         0         0         0         0         0         0         0
         0         0         0         0         0         0         0         0
         0         0         0         0         0         0         0         0
         0         0         0         0         0         0         0         0
         0         0         0         0         0         0         0         0
         0         0         0         0         0         0         0         0
         0         0         0         0         0         0         0         0
         0         0         0         0         0         0         0         0
         0         0         0         0         0         0         0         0
         0         0         0         0         0         0         0         0
         0         0         0         0         0         0         0         0
         0         0         0         0         0         0         0         0
         0         0         0         0         0         0         0         0
         0         0         0         0         0         0         0         0
         0         0         0         0         0         0         0         0
         0         0         0         0         0         0         0         0
         0         0         0         0         0         0         0         0
         0         0         0         0         0         0         0         0
         0         0         0         0         0         0         0         0
         0         0         0         0         0         0         0         0
         0         0         0         0         0         0         0         0
         0         0         0         0         0         0         0         0
         0         0         0         0         0         0         0         0
         0         0         0         0         0         0         0         0
         0         0         0         0         0         0         0         0
         0         0         0         0         0         0         0         0
         0         0         0         0         0         0         0         0
         0         0         0         0         0         0         0         0
         0         0         0         0         0         0         0         0
         0         0         0         0         0         0         0         0
         0         0         0         0         0         0         0         0
         0         0         0         0         0         0         0         0
         0         0         0         0         0         0         0         0
         0         0         0         0         0         0         0         0
         0         0         0         0         0         0         0         0
         0         0         0         0         0         0         0         0
         0         0         0         0         0         0         0         0
         0         0         0         0         0         0         0         0
         0         0         0         0         0         0         0         0
         0         0         0         0         0         0         0         0
         0         0         0         0         0         0         0         0
         0         0         0         0         0         0         0         0
         0         0         0         0         0         0         0         0
         0         0         0         0         0         0         0         0
         0         0         0         0         0         0         0         0
         0         0         0         0         0         0         0         0
         0         0         0         0         0         0         0         0
         0         0         0         0         0         0         0         0
         0         0         0         0         0         0         0         0
         0         0         0         0         0         0         0         0
         0         0         0         0         0         0         0         0
         0         0         0         0         0         0         0         0
         0         0         0         0         0         0         0         0
         0         0         0         0         0         0         0         0
         0         0         0         0         0         0         0         0
         0         0         0         0         0         0         0         0
         0         0         0         0         0         0         0         0
         0         0         0         0         0         0         0         0
         0         0         0         0         0         0         0         0
         0         0         0         0         0         0         0         0
         0         0         0         0         0         0         0         0
         0         0         0         0         0         0         0         0
         0         0         0         0         0         0         0         0
         0         0         0         0         0         0         0         0
         0         0         0         0         0         0         0         0
         0         0         0         0         0         0         0         0
         0         0         0         0         0         0         0         0
         0         0         0         0         0         0         0         0
         0         0         0         0         0         0         0         0
         0         0         0         0         0         0         0         0
         0         0         0         0         0         0         0         0
         0         0         0         0         0         0         0         0
         0         0         0         0         0         0         0         0
         0         0         0         0         0         0         0         0
         0         0         0         0         0         0         0         0
         0         0         0         0         0         0         0         0
         0         0         0         0         0         0         0         0
         0         0         0         0         0         0         0         0
         0         0         0         0         0         0         0         0
         0         0         0         0         0         0         0         0
         0         0         0         0         0         0         0         0
         0         0         0         0         0         0         0         0
         0         0         0         0         0         0         0         0
         0         0         0         0         0         0         0         0
         0         0         0         0         0         0         0         0
         0         0         0         0         0         0         0         0
         0         0         0         0         0         0         0         0
         0         0         0         0         0         0         0         0
         0         0         0         0         0         0         0         0
         0         0         0         0         0         0         0         0
         0         0         0         0         0         0         0         0
         0         0         0         0         0         0         0         0
         0         0         0         0         0         0         0         0
         0         0         0         0         0         0         0         0
         0         0         0         0         0         0         0         0
         0         0         0         0         0         0         0         0
         0         0         0         0         0         0         0         0
         0         0         0         0         0         0         0         0
         0         0         0         0

       548         0 !NGRP NST2
         0         1         0         3         1         0         6         1         0
         9         1         0        12         1         0        15         1         0
        18         1         0        21         1         0        24         1         0
        27         1         0        30         1         0        33         1         0
        36         1         0        39         1         0        42         1         0
        45         1         0        48         1         0        51         1         0
        54         1         0        57         1         0        60         1         0
        63         1         0        66         1         0        69         1         0
        72         1         0        75         1         0        78         1         0
        81         1         0        84         1         0        87         1         0
        90         1         0        93         1         0        96         1         0
        99         1         0       102         1         0       105         1         0
       108         1         0       111         1         0       114         1         0
       117         1         0       120         1         0       123         1         0
       126         1         0       129         1         0       132         1         0
       135         1         0       138         1         0       141         1         0
       144         1         0       147         1         0       150         1         0
       153         1         0       156         1         0       159         1         0
       162         1         0       165         1         0       168         1         0
       171         1         0       174         1         0       177         1         0
       180         1         0       183         1         0       186         1         0
       189         1         0       192         1         0       195         1         0
       198         1         0       201         1         0       204         1         0
       207         1         0       210         1         0       213         1         0
       216         1         0       219         1         0       222         1         0
       225         1         0       228         1         0       231         1         0
       234         1         0       237         1         0       240         1         0
       243         1         0       246         1         0       249         1         0
       252         1         0       255         1         0       258         1         0
       261         1         0       264         1         0       267         1         0
       270         1         0       273         1         0       276         1         0
       279         1         0       282         1         0       285         1         0
       288         1         0       291         1         0       294         1         0
       297         1         0       300         1         0       303         1         0
       306         1         0       309         1         0       312         1         0
       315         1         0       318         1         0       321         1         0
       324         1         0       327         1         0       330         1         0
       333         1         0       336         1         0       339         1         0
       342         1         0       345         1         0       348         1         0
       351         1         0       354         1         0       357         1         0
       360         1         0       363         1         0       366         1         0
       369         1         0       372         1         0       375         1         0
       378         1         0       381         1         0       384         1         0
       387         1         0       390         1         0       393         1         0
       396         1         0       399         1         0       402         1         0
       405         1         0       408         1         0       411         1         0
       414         1         0       417         1         0       420         1         0
       423         1         0       426         1         0       429         1         0
       432         1         0       435         1         0       438         1         0
       441         1         0       444         1         0       447         1         0
       450         1         0       453         1         0       456         1         0
       459         1         0       462         1         0       465         1         0
       468         1         0       471         1         0       474         1         0
       477         1         0       480         1         0       483         1         0
       486         1         0       489         1         0       492         1         0
       495         1         0       498         1         0       501         1         0
       504         1         0       507         1         0       510         1         0
       513         1         0       516         1         0       519         1         0
       522         1         0       525         1         0       528         1         0
       531         1         0       534         1         0       537         1         0
       540         1         0       543         1         0       546         1         0
       549         1         0       552         1         0       555         1         0
       558         1         0       561         1         0       564         1         0
       567         1         0       570         1         0       573         1         0
       576         1         0       579         1         0       582         1         0
       585         1         0       588         1         0       591         1         0
       594         1         0       597         1         0       600         1         0
       603         1         0       606         1         0       609         1         0
       612         1         0       615         1         0       618         1         0
       621         1         0       624         1         0       627         1         0
       630         1         0       633         1         0       636         1         0
       639         1         0       642         1         0       645         1         0
       648         1         0       651         1         0       654         1         0
       657         1         0       660         1         0       663         1         0
       666         1         0       669         1         0       672         1         0
       675         1         0       678         1         0       681         1         0
       684         1         0       687         1         0       690         1         0
       693         1         0       696         1         0       699         1         0
       702         1         0       705         1         0       708         1         0
       711         1         0       714         1         0       717         1         0
       720         1         0       723         1         0       726         1         0
       729         1         0       732         1         0       735         1         0
       738         1         0       741         1         0       744         1         0
       747         1         0       750         1         0       753         1         0
       756         1         0       759         1         0       762         1         0
       765         1         0       768         1         0       771         1         0
       774         1         0       777         1         0       780         1         0
       783         1         0       786         1         0       789         1         0
       792         1         0       795         1         0       798         1         0
       801         1         0       804         1         0       807         1         0
       810         1         0       813         1         0       816         1         0
       819         1         0       822         1         0       825         1         0
       828         1         0       831         1         0       834         1         0
       837         1         0       840         1         0       843         1         0
       846         1         0       849         1         0       852         1         0
       855         1         0       858         1         0       861         1         0
       864         1         0       867         1         0       870         1         0
       873         1         0       876         1         0       879         1         0
       882         1         0       885         1         0       888         1         0
       891         1         0       894         1         0       897         1         0
       900         1         0       903         1         0       906         1         0
       909         1         0       912         1         0       915         1         0
       918         1         0       921         1         0       924         1         0
       927         1         0       930         1         0       933         1         0
       936         1         0       939         1         0       942         1         0
       945         1         0       948         1         0       951         1         0
       954         1         0       957         1         0       960         1         0
       963         1         0       966         1         0       969         1         0
       972         1         0       975         1         0       978         1         0
       981         1         0       984         1         0       987         1         0
       990         1         0       993         1         0       996         1         0
       999         1         0      1002         1         0      1005         1         0
      1008         1         0      1011         1         0      1014         1         0
      1017         1         0      1020         1         0      1023         1         0
      1026         1         0      1029         1         0      1032         1         0
      1035         1         0      1038         1         0      1041         1         0
      1044         1         0      1047         1         0      1050         1         0
      1053         1         0      1056         1         0      1059         1         0
      1062         1         0      1065         1         0      1068         1         0
      1071         1         0      1074         1         0      1077         1         0
      1080         1         0      1083         1         0      1086         1         0
      1089         1         0      1092         1         0      1095         1         0
      1098         1         0      1101         1         0      1104         1         0
      1107         1         0      1110         1         0      1113         1         0
      1116         1         0      1119         1         0      1122         1         0
      1125         1         0      1128         1         0      1131         1         0
      1134         1         0      1137         1         0      1140         1         0
      1143         1         0      1146         1         0      1149         1         0
      1152         1         0      1155         1         0      1158         1         0
      1161         1         0      1164         1         0      1167         1         0
      1170         1         0      1173         1         0      1176         1         0
      1179         1         0      1182         1         0      1185         1         0
      1188         1         0      1191         1         0      1194         1         0
      1197         1         0      1200         1         0      1203         1         0
      1206         1         0      1209         1         0      1212         1         0
      1215         1         0      1218         1         0      1221         1         0
      1224         1         0      1227         1         0      1230         1         0
      1233         1         0      1236         1         0      1239         1         0
      1242         1         0      1245         1         0      1248         1         0
      1251         1         0      1254         1         0      1257         1         0
      1260         1         0      1263         1         0      1266         1         0
      1269         1         0      1272         1         0      1275         1         0
      1278         1         0      1281         1         0      1284         1         0
      1287         1         0      1290         1         0      1293         1         0
      1296         1         0      1299         1         0      1302         1         0
      1305         1         0      1308         1         0      1311         1         0
      1314         1         0      1317         1         0      1320         1         0
      1323         1         0      1326         1         0      1329         1         0
      1332         1         0      1335         1         0      1338         1         0
      1341         1         0      1344         1         0      1347         1         0
      1350         1         0      1353         1         0      1356         1         0
      1359         1         0      1362         1         0      1365         1         0
      1368         1         0      1371         1         0      1374         1         0
      1377         1         0      1380         1         0      1383         1         0
      1386         1         0      1389         1         0      1392         1         0
      1395         1         0      1398         1         0      1401         1         0
      1404         1         0      1407         1         0      1410         1         0
      1413         1         0      1416         1         0      1419         1         0
      1422         1         0      1425         1         0      1428         1         0
      1431         1         0      1434         1         0      1437         1         0
      1440         1         0      1443         1         0      1446         1         0
      1449         1         0      1452         1         0      1455         1         0
      1458         1         0      1461         1         0      1464         1         0
      1467         1         0      1470         1         0      1473         1         0
      1476         1         0      1479         1         0      1482         1         0
      1485         1         0      1488         1         0      1491         1         0
      1494         1         0      1497         1         0      1500         1         0
      1503         1         0      1506         1         0      1509         1         0
      1512         1         0      1515         1         0      1518         1         0
      1521         1         0      1524         1         0      1527         1         0
      1530         1         0      1533         1         0      1536         1         0
      1539         1         0      1542         1         0      1545         1         0
      1548         1         0      1551         1         0      1554         1         0
      1557         1         0      1560         1         0      1563         1         0
      1566         1         0      1569         1         0      1572         1         0
      1575         1         0      1578         1         0      1581         1         0
      1584         1         0      1587         1         0      1590         1         0
      1593         1         0      1596         1         0      1599         1         0
      1602         1         0      1605         1         0      1608         1         0
      1611         1         0      1614         1         0      1617         1         0
      1620         1         0      1623         1         0      1626         1         0
      1629         1         0      1632         1         0      1635         1         0
      1638         1         0      1641         1         0

         0         0 !NUMLP NUMLPH

         0 !NCRTERM: cross-terms


         0 !AUTOGEN
       111       111       111       111       111       111       111       111
       111       111       111       111       111       111       111       111
       111       111       111       111       111       111       111       111
       111       111       111       111       111       111       111       111
       111       111       111       111       111       111       111       111
       111       111       111       111       111       111       111       111
       111       111       111       111       111       111       111       111
       111       111       111       111       111       111       111       111
       111       111       111       111       111       111       111       111
       111       111       111       111       111       111       111       111
       111       111       111       111       111       111       111       111
       111       111       111       111       111       111       111       111
       111       111       111       111       111       111       111       111
       111       111       111       111       111       111       111       111
       111       111       111       111       111       111       111       111
       111       111       111       111       111       111       111       111
       111       111       111       111       111       111       111       111
       111       111       111       111       111       111       111       111
       111       111       111       111       111       111       111       111
       111       111       111       111       111       111       111       111
       111       111       111       111       111       111       111       111
       111       111       111       111       111       111       111       111
       111       111       111       111       111       111       111       111
       111       111       111       111       111       111       111       111
       111       111       111       111       111       111       111       111
       111       111       111       111       111       111       111       111
       111       111       111       111       111       111       111       111
       111       111       111       111       111       111       111       111
       111       111       111       111       111       111       111       111
       111       111       111       111       111       111       111       111
       111       111       111       111       111       111       111       111
       111       111       111       111       111       111       111       111
       111       111       111       111       111       111       111       111
       111       111       111       111       111       111       111       111
       111       111       111       111       111       111       111       111
       111       111       111       111       111       111       111       111
       111       111       111       111       111       111       111       111
       111       111       111       111       111       111       111       111
       111       111       111       111       111       111       111       111
       111       111       111       111       111       111       111       111
       111       111       111       111       111       111       111       111
       111       111       111       111       111       111       111       111
       111       111       111       111       111       111       111       111
       111       111       111       111       111       111       111       111
       111       111       111       111       111       111       111       111
       111       111       111       111       111       111       111       111
       111       111       111       111       111       111       111       111
       111       111       111       111       111       111       111       111
       111       111       111       111       111       111       111       111
       111       111       111       111       111       111       111       111
       111       111       111       111       111       111       111       111
       111       111       111       111       111       111       111       111
       111       111       111       111       111       111       111       111
       111       111       111       111       111       111       111       111
       111       111       111       111       111       111       111       111
       111       111       111       111       111       111       111       111
       111       111       111       111       111       111       111       111
       111       111       111       111       111       111       111       111
       111       111       111       111       111       111       111       111
       111       111       111       111       111       111       111       111
       111       111       111       111       111       111       111       111
       111       111       111       111       111       111       111       111
       111       111       111       111       111       111       111       111
       111       111       111       111       111       111       111       111
       111       111       111       111       111       111       111       111
       111       111       111       111       111       111       111       111
       111       111       111       111       111       111       111       111
       111       111       111       111       111       111       111       111
       111       111       111       111       111       111       111       111
       111       111       111       111       111       111       111       111
       111       111       111       111       111       111       111       111
       111       111       111       111       111       111       111       111
       111       111       111       111       111       111       111       111
       111       111       111       111       111       111       111       111
       111       111       111       111       111       111       111       111
       111       111       111       111       111       111       111       111
       111       111       111       111       111       111       111       111
       111       111       111       111       111       111       111       111
       111       111       111       111       111       111       111       111
       111       111       111       111       111       111       111       111
       111       111       111       111       111       111       111       111
       111       111       111       111       111       111       111       111
       111       111       111       111       111       111       111       111
       111       111       111       111       111       111       111       111
       111       111       111       111       111       111       111       111
       111       111       111       111       111       111       111       111
       111       111       111       111       111       111       111       111
       111       111       111       111       111       111       111       111
       111       111       111       111       111       111       111       111
       111       111       111       111       111       111       111       111
       111       111       111       111       111       111       111       111
       111       111       111       111       111       111       111       111
       111       111       111       111       111       111       111       111
       111       111       111       111       111       111       111       111
       111       111       111       111       111       111       111       111
       111       111       111       111       111       111       111       111
       111       111       111       111       111       111       111       111
       111       111       111       111       111       111       111       111
       111       111       111       111       111       111       111       111
       111       111       111       111       111       111       111       111
       111       111       111       111       111       111       111       111
       111       111       111       111       111       111       111       111
       111       111       111       111       111       111       111       111
       111       111       111       111       111       111       111       111
       111       111       111       111       111       111       111       111
       111       111       111       111       111       111       111       111
       111       111       111       111       111       111       111       111
       111       111       111       111       111       111       111       111
       111       111       111       111       111       111       111       111
       111       111       111       111       111       111       111       111
       111       111       111       111       111       111       111       111
       111       111       111       111       111       111       111       111
       111       111       111       111       111       111       111       111
       111       111       111       111       111       111       111       111
       111       111       111       111       111       111       111       111
       111       111       111       111       111       111       111       111
       111       111       111       111       111       111       111       111
       111       111       111       111       111       111       111       111
       111       111       111       111       111       111       111       111
       111       111       111       111       111       111       111       111
       111       111       111       111       111       111       111       111
       111       111       111       111       111       111       111       111
       111       111       111       111       111       111       111       111
       111       111       111       111       111       111       111       111
       111       111       111       111       111       111       111       111
       111       111       111       111       111       111       111       111
       111       111       111       111       111       111       111       111
       111       111       111       111       111       111       111       111
       111       111       111       111       111       111       111       111
       111       111       111       111       111       111       111       111
       111       111       111       111       111       111       111       111
       111       111       111       111       111       111       111       111
       111       111       111       111       111       111       111       111
       111       111       111       111       111       111       111       111
       111       111       111       111       111       111       111       111
       111       111       111       111       111       111       111       111
       111       111       111       111       111       111       111       111
       111       111       111       111       111       111       111       111
       111       111       111       111       111       111       111       111
       111       111       111       111       111       111       111       111
       111       111       111       111       111       111       111       111
       111       111       111       111       111       111       111       111
       111       111       111       111       111       111       111       111
       111       111       111       111       111       111       111       111
       111       111       111       111       111       111       111       111
       111       111       111       111       111       111       111       111
       111       111       111       111       111       111       111       111
       111       111       111       111       111       111       111       111
       111       111       111       111       111       111       111       111
       111       111       111       111       111       111       111       111
       111       111       111       111       111       111       111       111
       111       111       111       111       111       111       111       111
       111       111       111       111       111       111       111       111
       111       111       111       111       111       111       111       111
       111       111       111       111       111       111       111       111
       111       111       111       111       111       111       111       111
       111       111       111       111       111       111       111       111
       111       111       111       111       111       111       111       111
       111       111       111       111       111       111       111       111
       111       111       111       111       111       111       111       111
       111       111       111       111       111       111       111       111
       111       111       111       111       111       111       111       111
       111       111       111       111       111       111       111       111
       111       111       111       111       111       111       111       111
       111       111       111       111       111       111       111       111
       111       111       111       111       111       111       111       111
       111       111       111       111       111       111       111       111
       111       111       111       111       111       111       111       111
       111       111       111       111       111       111       111       111
       111       111       111       111       111       111       111       111
       111       111       111       111       111       111       111       111
       111       111       111       111       111       111       111       111
       111       111       111       111       111       111       111       111
       111       111       111       111       111       111       111       111
       111       111       111       111       111       111       111       111
       111       111       111       111       111       111       111       111
       111       111       111       111       111       111       111       111
       111       111       111       111       111       111       111       111
       111       111       111       111       111       111       111       111
       111       111       111       111       111       111       111       111
       111       111       111       111       111       111       111       111
       111       111       111       111       111       111       111       111
       111       111       111       111       111       111       111       111
       111       111       111       111       111       111       111       111
       111       111       111       111       111       111       111       111
       111       111       111       111       111       111       111       111
       111       111       111       111       111       111       111       111
       111       111       111       111       111       111       111       111
       111       111       111       111       111       111       111       111
       111       111       111       111       111       111       111       111
       111       111       111       111       111       111       111       111
       111       111       111       111       111       111       111       111
       111       111       111       111       111       111       111       111
       111       111       111       111       111       111       111       111
       111       111       111       111       111       111       111       111
       111       111       111       111       111       111       111       111
       111       111       111       111       111       111       111       111
       111       111       111       111       111       111       111       111
       111       111       111       111       111       111       111       111
       111       111       111       111       111       111       111       111
       111       111       111       111       111       111       111       111
       111       111       111       111       111       111       111       111
       111       111       111       111       111       111       111       111
       111       111       111       111       111       111       111       111
       111       111       111       111       111       111       111       111
       111       111       111       111
         0         0         0         0         0         0         0         0
         0         0         0         0         0         0         0         0
         0         0         0         0         0         0         0         0
         0         0         0         0         0         0         0         0
         0         0         0         0         0         0         0         0
         0         0         0         0         0         0         0         0
         0         0         0         0         0         0         0         0
         0         0         0         0         0         0         0         0
         0         0         0         0         0         0         0         0
         0         0         0         0         0         0         0         0
         0         0         0         0         0         0         0         0
         0         0         0         0         0         0         0         0
         0         0         0         0         0         0         0         0
         0         0         0         0         0         0         0         0
         0         0         0         0         0         0         0         0
         0         0         0         0         0         0         0         0
         0         0         0         0         0         0         0         0
         0         0         0         0         0         0         0         0
         0         0         0         0         0         0         0         0
         0         0         0         0         0         0         0         0
         0         0         0         0         0         0         0         0
         0         0         0         0         0         0         0         0
         0         0         0         0         0         0         0         0
         0         0         0         0         0         0         0         0
         0         0         0         0         0         0         0         0
         0         0         0         0         0         0         0         0
         0         0         0         0         0         0         0         0
         0         0         0         0         0         0         0         0
         0         0         0         0         0         0         0         0
         0         0         0         0         0         0         0         0
         0         0         0         0         0         0         0         0
         0         0         0         0         0         0         0         0
         0         0         0         0         0         0         0         0
         0         0         0         0         0         0         0         0
         0         0         0         0         0         0         0         0
         0         0         0         0         0         0         0         0
         0         0         0         0         0         0         0         0
         0         0         0         0         0         0         0         0
         0         0         0         0         0         0         0         0
         0         0         0         0         0         0         0         0
         0         0         0         0         0         0         0         0
         0         0         0         0         0         0         0         0
         0         0         0         0         0         0         0         0
         0         0         0         0         0         0         0         0
         0         0         0         0         0         0         0         0
         0         0         0         0         0         0         0         0
         0         0         0         0         0         0         0         0
         0         0         0         0         0         0         0         0
         0         0         0         0         0         0         0         0
         0         0         0         0         0         0         0         0
         0         0         0         0         0         0         0         0
         0         0         0         0         0         0         0         0
         0         0         0         0         0         0         0         0
         0         0         0         0         0         0         0         0
         0         0         0         0         0         0         0         0
         0         0         0         0         0         0         0         0
         0         0         0         0         0         0         0         0
         0         0         0         0         0         0         0         0
         0         0         0         0         0         0         0         0
         0         0         0         0         0         0         0         0
         0         0         0         0         0         0         0         0
         0         0         0         0         0         0         0         0
         0         0         0         0         0         0         0         0
         0         0         0         0         0         0         0         0
         0         0         0         0         0         0         0         0
         0         0         0         0         0         0         0         0
         0         0         0         0         0         0         0         0
         0         0         0         0         0         0         0         0
         0         0         0         0         0         0         0         0
         0         0         0         0         0         0         0         0
         0         0         0         0         0         0         0         0
         0         0         0         0         0         0         0         0
         0         0         0         0         0         0         0         0
         0         0         0         0         0         0         0         0
         0         0         0         0         0         0         0         0
         0         0         0         0         0         0         0         0
         0         0         0         0         0         0         0         0
         0         0         0         0         0         0         0         0
         0         0         0         0         0         0         0         0
         0         0         0         0         0         0         0         0
         0         0         0         0         0         0         0         0
         0         0         0         0         0         0         0         0
         0         0         0         0         0         0         0         0
         0         0         0         0         0         0         0         0
         0         0         0         0         0         0         0         0
         0         0         0         0         0         0         0         0
         0         0         0         0         0         0         0         0
         0         0         0         0         0         0         0         0
         0         0         0         0         0         0         0         0
         0         0         0         0         0         0         0         0
         0         0         0         0         0         0         0         0
         0         0         0         0         0         0         0         0
         0         0         0         0         0         0         0         0
         0         0         0         0         0         0         0         0
         0         0         0         0         0         0         0         0
         0         0         0         0         0         0         0         0
         0         0         0         0         0         0         0         0
         0         0         0         0         0         0         0         0
         0         0         0         0         0         0         0         0
         0         0         0         0         0         0         0         0
         0         0         0         0         0         0         0         0
         0         0         0         0         0         0         0         0
         0         0         0         0         0         0         0         0
         0         0         0         0         0         0         0         0
         0         0         0         0         0         0         0         0
         0         0         0         0         0         0         0         0
         0         0         0         0         0         0         0         0
         0         0         0         0         0         0         0         0
         0         0         0         0         0         0         0         0
         0         0         0         0         0         0         0         0
         0         0         0         0         0         0         0         0
         0         0         0         0         0         0         0         0
         0         0         0         0         0         0         0         0
         0         0         0         0         0         0         0         0
         0         0         0         0         0         0         0         0
         0         0         0         0         0         0         0         0
         0         0         0         0         0         0         0         0
         0         0         0         0         0         0         0         0
         0         0         0         0         0         0         0         0
         0         0         0         0         0         0         0         0
         0         0         0         0         0         0         0         0
         0         0         0         0         0         0         0         0
         0         0         0         0         0         0         0         0
         0         0         0         0         0         0         0         0
         0         0         0         0         0         0         0         0
         0         0         0         0         0         0         0         0
         0         0         0         0         0         0         0         0
         0         0         0         0         0         0         0         0
         0         0         0         0         0         0         0         0
         0         0         0         0         0         0         0         0
         0         0         0         0         0         0         0         0
         0         0         0         0         0         0         0         0
         0         0         0         0         0         0         0         0
         0         0         0         0         0         0         0         0
         0         0         0         0         0         0         0         0
         0         0         0         0         0         0         0         0
         0         0         0         0         0         0         0         0
         0         0         0         0         0         0         0         0
         0         0         0         0         0         0         0         0
         0         0         0         0         0         0         0         0
         0         0         0         0         0         0         0         0
         0         0         0         0         0         0         0         0
         0         0         0         0         0         0         0         0
         0         0         0         0         0         0         0         0
         0         0         0         0         0         0         0         0
         0         0         0         0         0         0         0         0
         0         0         0         0         0         0         0         0
         0         0         0         0         0         0         0         0
         0         0         0         0         0         0         0         0
         0         0         0         0         0         0         0         0
         0         0         0         0         0         0         0         0
         0         0         0         0         0         0         0         0
         0         0         0         0         0         0         0         0
         0         0         0         0         0         0         0         0
         0         0         0         0         0         0         0         0
         0         0         0         0         0         0         0         0
         0         0         0         0         0         0         0         0
         0         0         0         0         0         0         0         0
         0         0         0         0         0         0         0         0
         0         0         0         0         0         0         0         0
         0         0         0         0         0         0         0         0
         0         0         0         0         0         0         0         0
         0         0         0         0         0         0         0         0
         0         0         0         0         0         0         0         0
         0         0         0         0         0         0         0         0
         0         0         0         0         0         0         0         0
         0         0         0         0         0         0         0         0
         0         0         0         0         0         0         0         0
         0         0         0         0         0         0         0         0
         0         0         0         0         0         0         0         0
         0         0         0         0         0         0         0         0
         0         0         0         0         0         0         0         0
         0         0         0         0         0         0         0         0
         0         0         0         0         0         0         0         0
         0         0         0         0         0         0         0         0
         0         0         0         0         0         0         0         0
         0         0         0         0         0         0         0         0
         0         0         0         0         0         0         0         0
         0         0         0         0         0         0         0         0
         0         0         0         0         0         0         0         0
         0         0         0         0         0         0         0         0
         0         0         0         0         0         0         0         0
         0         0         0         0         0         0         0         0
         0         0         0         0         0         0         0         0
         0         0         0         0         0         0         0         0
         0         0         0         0         0         0         0         0
         0         0         0         0         0         0         0         0
         0         0         0         0         0         0         0         0
         0         0         0         0         0         0         0         0
         0         0         0         0         0         0         0         0
         0         0         0         0         0         0         0         0
         0         0         0         0         0         0         0         0
         0         0         0         0         0         0         0         0
         0         0         0         0         0         0         0         0
         0         0         0         0         0         0         0         0
         0         0         0         0         0         0         0         0
         0         0         0         0         0         0         0         0
         0         0         0         0         0         0         0         0
         0         0         0         0         0         0         0         0
         0         0         0         0         0         0         0         0
         0         0         0         0         0         0         0         0
         0         0         0         0         0         0         0         0
         0         0         0         0         0         0         0         0
         0         0         0         0         0         0         0         0
         0         0         0         0         0         0         0         0
         0         0         0         0
