* pre_mlpot:monomer_repack_skipped_clean
*
        150  EXT
         1         1  TIP3  OH2           5.0278483038        1.2623787897       -3.4717420725  CLST           1          1.0000000000
         2         1  TIP3  H1            4.3645152729        1.2003104568       -4.1611460148  CLST           1          1.0000000000
         3         1  TIP3  H2            4.4831108772        1.5835809271       -2.7167224907  CLST           1          1.0000000000
         4         2  TIP3  OH2          -0.9146284210        9.1952804240      -12.4459582037  CLST           2          1.0000000000
         5         2  TIP3  H1           -0.2502427696        8.5285843903      -12.2509509234  CLST           2          1.0000000000
         6         2  TIP3  H2           -0.4466307622       10.0248009191      -12.3188777901  CLST           2          1.0000000000
         7         3  TIP3  OH2           9.8124350224       -7.1050806373       -2.5734924068  CLST           3          1.0000000000
         8         3  TIP3  H1           10.1547208529       -7.9992445579       -2.5694109593  CLST           3          1.0000000000
         9         3  TIP3  H2            8.9866019060       -7.1643230100       -2.0924679301  CLST           3          1.0000000000
        10         4  TIP3  OH2           8.8721926451        3.2433571443        4.0323649888  CLST           4          1.0000000000
        11         4  TIP3  H1            8.6776805051        2.4918528127        3.4693802913  CLST           4          1.0000000000
        12         4  TIP3  H2            8.9084327464        3.9769966958        3.3838258125  CLST           4          1.0000000000
        13         5  TIP3  OH2          -4.4250718668       -9.6785774313       -1.3082381137  CLST           5          1.0000000000
        14         5  TIP3  H1           -3.8209022711       -9.9717692376       -0.6238564344  CLST           5          1.0000000000
        15         5  TIP3  H2           -4.1135225830       -8.7664720544       -1.4880661754  CLST           5          1.0000000000
        16         6  TIP3  OH2           4.3723506678        8.4349005321       -1.5877914081  CLST           6          1.0000000000
        17         6  TIP3  H1            4.2518904399        7.9977842855       -0.7186229683  CLST           6          1.0000000000
        18         6  TIP3  H2            3.7762030562        7.9291442241       -2.1451534780  CLST           6          1.0000000000
        19         7  TIP3  OH2          -1.3030641351       -6.4371359955      -13.7500851402  CLST           7          1.0000000000
        20         7  TIP3  H1           -0.7773437113       -5.7400405135      -13.3183085943  CLST           7          1.0000000000
        21         7  TIP3  H2           -0.7665112278       -6.6171785135      -14.5524085750  CLST           7          1.0000000000
        22         8  TIP3  OH2          -8.6250192180        6.1678692834        1.3864498053  CLST           8          1.0000000000
        23         8  TIP3  H1           -8.0571954357        5.9513719694        2.1605544492  CLST           8          1.0000000000
        24         8  TIP3  H2           -7.9798598464        6.0941552749        0.6520463701  CLST           8          1.0000000000
        25         9  TIP3  OH2          -4.1181009888       -7.1017698506       -2.2205159121  CLST           9          1.0000000000
        26         9  TIP3  H1           -4.0546447228       -6.2079971173       -2.5618113561  CLST           9          1.0000000000
        27         9  TIP3  H2           -4.9205743784       -7.4421498437       -2.6696762617  CLST           9          1.0000000000
        28        10  TIP3  OH2          -9.4134370137        6.9220032180        5.0705579081  CLST          10          1.0000000000
        29        10  TIP3  H1          -10.2689640116        6.4596772853        4.8911547570  CLST          10          1.0000000000
        30        10  TIP3  H2           -9.6177824554        7.7991495783        4.7168747697  CLST          10          1.0000000000
        31        11  TIP3  OH2          -2.8046916802       -8.6673072238      -13.3611852332  CLST          11          1.0000000000
        32        11  TIP3  H1           -3.7347279782       -8.3552778123      -13.4174077373  CLST          11          1.0000000000
        33        11  TIP3  H2           -2.3155185112       -7.8150151400      -13.4467574138  CLST          11          1.0000000000
        34        12  TIP3  OH2           4.1012496134        7.0704883097        0.7805578659  CLST          12          1.0000000000
        35        12  TIP3  H1            4.9510144241        6.6064302613        0.9584574987  CLST          12          1.0000000000
        36        12  TIP3  H2            3.8695030974        7.3980177139        1.6549853361  CLST          12          1.0000000000
        37        13  TIP3  OH2          -5.8193443262        8.1287414950       -8.0233053003  CLST          13          1.0000000000
        38        13  TIP3  H1           -5.5783184932        7.8216431924       -8.9265135723  CLST          13          1.0000000000
        39        13  TIP3  H2           -5.5096905531        9.0363878560       -8.0540889101  CLST          13          1.0000000000
        40        14  TIP3  OH2         -11.2820382690        5.7206571486        1.7265769566  CLST          14          1.0000000000
        41        14  TIP3  H1          -11.5332456728        5.7013725259        0.7998790041  CLST          14          1.0000000000
        42        14  TIP3  H2          -10.3084828145        5.8469944413        1.6532441224  CLST          14          1.0000000000
        43        15  TIP3  OH2          -1.1238540546       -9.7218855468      -15.2621055262  CLST          15          1.0000000000
        44        15  TIP3  H1           -1.7219432860       -9.4129552674      -14.5451757741  CLST          15          1.0000000000
        45        15  TIP3  H2           -1.4475858171      -10.6135029287      -15.4187112061  CLST          15          1.0000000000
        46        16  TIP3  OH2          -0.2008474267       -2.2622683428      -10.2609690115  CLST          16          1.0000000000
        47        16  TIP3  H1            0.6109761476       -2.2858811970      -10.8121691080  CLST          16          1.0000000000
        48        16  TIP3  H2           -0.0724653089       -1.4679751647       -9.7370754447  CLST          16          1.0000000000
        49        17  TIP3  OH2          -5.0641085523        7.5367832290      -10.5701093837  CLST          17          1.0000000000
        50        17  TIP3  H1           -5.1789540823        6.7330007993      -11.0803122450  CLST          17          1.0000000000
        51        17  TIP3  H2           -4.5496262323        8.0833174180      -11.2085857065  CLST          17          1.0000000000
        52        18  TIP3  OH2           7.3146488955      -11.3279090973       10.9455607907  CLST          18          1.0000000000
        53        18  TIP3  H1            8.0965332384      -11.8808183772       10.9851492209  CLST          18          1.0000000000
        54        18  TIP3  H2            7.1086768617      -11.1436853086       11.8653286848  CLST          18          1.0000000000
        55        19  TIP3  OH2           7.6959329446        1.6244940684       -3.0968942388  CLST          19          1.0000000000
        56        19  TIP3  H1            6.7249828536        1.5740923801       -3.2507697243  CLST          19          1.0000000000
        57        19  TIP3  H2            7.9209009034        0.6932090366       -3.0471528056  CLST          19          1.0000000000
        58        20  TIP3  OH2           1.7584726614       -2.9187647788      -12.0596311320  CLST          20          1.0000000000
        59        20  TIP3  H1            1.0892385092       -3.6181564957      -12.2031115899  CLST          20          1.0000000000
        60        20  TIP3  H2            2.4390934665       -3.1446234256      -12.6975075790  CLST          20          1.0000000000
        61        21  TIP3  OH2          -3.9871441091       -9.6701688435      -11.0533850567  CLST          21          1.0000000000
        62        21  TIP3  H1           -3.3909773436       -9.4462345615      -11.7977385942  CLST          21          1.0000000000
        63        21  TIP3  H2           -3.3956120613      -10.1140559702      -10.4426518266  CLST          21          1.0000000000
        64        22  TIP3  OH2           2.6373076063       -8.8794055653        0.5380489544  CLST          22          1.0000000000
        65        22  TIP3  H1            2.9664620825       -9.5413347913        1.1822325142  CLST          22          1.0000000000
        66        22  TIP3  H2            2.1752840423       -9.4241760627       -0.1016431170  CLST          22          1.0000000000
        67        23  TIP3  OH2           3.7111645851      -10.1674016471        2.7185659640  CLST          23          1.0000000000
        68        23  TIP3  H1            3.8155850705       -9.2136778871        2.9201284141  CLST          23          1.0000000000
        69        23  TIP3  H2            4.0547617815      -10.5840939612        3.5119110458  CLST          23          1.0000000000
        70        24  TIP3  OH2          -7.5708700835        6.9213633352       -3.3612528623  CLST          24          1.0000000000
        71        24  TIP3  H1           -7.3945754271        6.8381962845       -4.3243527997  CLST          24          1.0000000000
        72        24  TIP3  H2           -8.1904138735        7.6803447857       -3.3596583381  CLST          24          1.0000000000
        73        25  TIP3  OH2          10.4313800866        4.4898727765        9.1043498163  CLST          25          1.0000000000
        74        25  TIP3  H1           10.2610304531        4.0492062554        8.2416903622  CLST          25          1.0000000000
        75        25  TIP3  H2           10.9296287515        3.8212878988        9.5764097423  CLST          25          1.0000000000
        76        26  TIP3  OH2           8.7578819087        4.0762777317       -2.6075951858  CLST          26          1.0000000000
        77        26  TIP3  H1            8.3557914964        3.1800182261       -2.6670643185  CLST          26          1.0000000000
        78        26  TIP3  H2            9.0450108631        4.2031803296       -3.5136795920  CLST          26          1.0000000000
        79        27  TIP3  OH2          -8.6935377630        8.5061645051       -0.2590252727  CLST          27          1.0000000000
        80        27  TIP3  H1           -9.0167527542        8.0188715951        0.5122282354  CLST          27          1.0000000000
        81        27  TIP3  H2           -7.9458299379        7.9311122087       -0.5062460717  CLST          27          1.0000000000
        82        28  TIP3  OH2          -3.6264921267        8.7314544837      -12.5314516685  CLST          28          1.0000000000
        83        28  TIP3  H1           -3.8348864731        9.0613404729      -13.4295114288  CLST          28          1.0000000000
        84        28  TIP3  H2           -2.6627896755        8.9019121665      -12.4938086923  CLST          28          1.0000000000
        85        29  TIP3  OH2         -12.7198232558       -4.3333130238      -11.2647524849  CLST          29          1.0000000000
        86        29  TIP3  H1          -13.5099292717       -4.2858538570      -11.8038974573  CLST          29          1.0000000000
        87        29  TIP3  H2          -12.7815542777       -3.5744469952      -10.6837686243  CLST          29          1.0000000000
        88        30  TIP3  OH2           8.8654385296        8.0726506350       -1.8472912064  CLST          30          1.0000000000
        89        30  TIP3  H1            8.0785977682        8.6635890391       -1.8351548517  CLST          30          1.0000000000
        90        30  TIP3  H2            9.3961242356        8.4850185591       -2.5310488106  CLST          30          1.0000000000
        91        31  TIP3  OH2           8.9844248149        5.2224358896        2.1370473911  CLST          31          1.0000000000
        92        31  TIP3  H1            9.6124365166        5.9141664071        2.3686651494  CLST          31          1.0000000000
        93        31  TIP3  H2            8.9395051548        5.3244813701        1.1587919657  CLST          31          1.0000000000
        94        32  TIP3  OH2           8.7125337612        6.1465901796        7.7293492310  CLST          32          1.0000000000
        95        32  TIP3  H1            8.3569575566        6.8485713299        8.2750010950  CLST          32          1.0000000000
        96        32  TIP3  H2            9.3414976580        5.7079861725        8.3396083627  CLST          32          1.0000000000
        97        33  TIP3  OH2           3.6677275229       -7.4154438664        2.6262977012  CLST          33          1.0000000000
        98        33  TIP3  H1            3.2614006676       -7.7073235034        1.7832982757  CLST          33          1.0000000000
        99        33  TIP3  H2            3.5936509440       -6.4609302877        2.5734737363  CLST          33          1.0000000000
       100        34  TIP3  OH2          -7.2804365374        5.7284811133        3.7440293877  CLST          34          1.0000000000
       101        34  TIP3  H1           -6.6473183322        5.4977823447        4.4385109243  CLST          34          1.0000000000
       102        34  TIP3  H2           -8.0146831895        6.1075201943        4.2710924536  CLST          34          1.0000000000
       103        35  TIP3  OH2           8.5076355828        5.7437040020       -0.4877403761  CLST          35          1.0000000000
       104        35  TIP3  H1            8.6189557740        5.1112599520       -1.2377301440  CLST          35          1.0000000000
       105        35  TIP3  H2            8.6729208492        6.5922647836       -0.9618352166  CLST          35          1.0000000000
       106        36  TIP3  OH2           9.5932234010        3.7144964308        6.6357488617  CLST          36          1.0000000000
       107        36  TIP3  H1            9.1088922906        4.5571461316        6.7140327796  CLST          36          1.0000000000
       108        36  TIP3  H2            9.3693991552        3.4523389863        5.7175328199  CLST          36          1.0000000000
       109        37  TIP3  OH2          -6.9299386706        6.3961656908       -0.7998116604  CLST          37          1.0000000000
       110        37  TIP3  H1           -7.2162894924        6.4820147425       -1.7433187294  CLST          37          1.0000000000
       111        37  TIP3  H2           -6.0150230929        6.1274502433       -0.9229024191  CLST          37          1.0000000000
       112        38  TIP3  OH2          -9.2080076300        9.0932758415       -2.8900043052  CLST          38          1.0000000000
       113        38  TIP3  H1           -9.1189665622        8.9263859569       -1.9267590818  CLST          38          1.0000000000
       114        38  TIP3  H2           -9.5277184542        9.9966819465       -2.9069523556  CLST          38          1.0000000000
       115        39  TIP3  OH2          -5.4598380862       -8.1477123526      -12.8177362909  CLST          39          1.0000000000
       116        39  TIP3  H1           -5.1987970055       -8.7094839420      -12.0598137447  CLST          39          1.0000000000
       117        39  TIP3  H2           -6.3442706603       -7.8654126706      -12.5768426152  CLST          39          1.0000000000
       118        40  TIP3  OH2          -4.1477609424        9.6306647164       14.9137857214  CLST          40          1.0000000000
       119        40  TIP3  H1           -3.7237429215        9.4227096982       14.0766247485  CLST          40          1.0000000000
       120        40  TIP3  H2           -4.9472027312       10.0958906104       14.6511694336  CLST          40          1.0000000000
       121        41  TIP3  OH2           0.0803744061       -7.3718973620       14.0682380884  CLST          41          1.0000000000
       122        41  TIP3  H1            0.4136940824       -7.5403775002       13.1851800868  CLST          41          1.0000000000
       123        41  TIP3  H2           -0.2945491675       -8.2491966719       14.3056371141  CLST          41          1.0000000000
       124        42  TIP3  OH2           6.7239480796        9.7433011648       -1.9717584149  CLST          42          1.0000000000
       125        42  TIP3  H1            6.3769531661       10.6369792181       -2.0000328565  CLST          42          1.0000000000
       126        42  TIP3  H2            5.8970936912        9.2217787794       -1.8574523039  CLST          42          1.0000000000
       127        43  TIP3  OH2           3.3534167997        2.1843960177       -1.5442226170  CLST          43          1.0000000000
       128        43  TIP3  H1            2.6345151168        1.9271385666       -0.9643069958  CLST          43          1.0000000000
       129        43  TIP3  H2            3.6641324087        3.0058300912       -1.0991152523  CLST          43          1.0000000000
       130        44  TIP3  OH2          -0.5854548956       -4.4533517794      -11.8905488806  CLST          44          1.0000000000
       131        44  TIP3  H1           -0.5979733701       -3.7287051970      -11.2267182013  CLST          44          1.0000000000
       132        44  TIP3  H2           -1.4567875990       -4.8451038338      -11.7453748733  CLST          44          1.0000000000
       133        45  TIP3  OH2           6.3114776783        5.5104106868        1.1202296359  CLST          45          1.0000000000
       134        45  TIP3  H1            6.9100869093        5.2952494837        1.8548814851  CLST          45          1.0000000000
       135        45  TIP3  H2            6.9821385304        5.6291156818        0.4106507179  CLST          45          1.0000000000
       136        46  TIP3  OH2         -11.7883485674        5.8355706992        4.3883509657  CLST          46          1.0000000000
       137        46  TIP3  H1          -12.5004183948        5.2035129716        4.5182483438  CLST          46          1.0000000000
       138        46  TIP3  H2          -11.6693004874        5.8042555748        3.4103403091  CLST          46          1.0000000000
       139        47  TIP3  OH2          -8.0111675685        5.7524327671        7.1490546579  CLST          47          1.0000000000
       140        47  TIP3  H1           -8.4647725057        6.2978353764        6.4577145389  CLST          47          1.0000000000
       141        47  TIP3  H2           -8.7621464782        5.3597599068        7.5993191215  CLST          47          1.0000000000
       142        48  TIP3  OH2           4.0437962128        4.3738779438       -0.0909805499  CLST          48          1.0000000000
       143        48  TIP3  H1            3.6890923389        5.2663151234        0.0430210198  CLST          48          1.0000000000
       144        48  TIP3  H2            4.9226919150        4.4820964147        0.3160585897  CLST          48          1.0000000000
       145        49  TIP3  OH2          -7.2116735032        6.8228397005       -6.0751882001  CLST          49          1.0000000000
       146        49  TIP3  H1           -7.7633074206        6.3788759349       -6.7205016274  CLST          49          1.0000000000
       147        49  TIP3  H2           -6.6199191856        7.3384421320       -6.6672742301  CLST          49          1.0000000000
       148        50  TIP3  OH2          -6.2246596952       -8.6298046686       -3.1083899849  CLST          50          1.0000000000
       149        50  TIP3  H1           -5.7249041298       -9.2142763983       -2.5006053650  CLST          50          1.0000000000
       150        50  TIP3  H2           -6.9927235700       -9.1622202749       -3.3227609901  CLST          50          1.0000000000
