PSF EXT CMAP XPLOR AUTOG

         1 !NTITLE
*  DATE:     7/22/26     12:40: 6      CREATED BY USER: boittier                

       150 !NATOM
         1 CLST     1        TIP3     OH2      OT      -0.834000       15.9994           0
         2 CLST     1        TIP3     H1       HT       0.417000       1.00800           0
         3 CLST     1        TIP3     H2       HT       0.417000       1.00800           0
         4 CLST     2        TIP3     OH2      OT      -0.834000       15.9994           0
         5 CLST     2        TIP3     H1       HT       0.417000       1.00800           0
         6 CLST     2        TIP3     H2       HT       0.417000       1.00800           0
         7 CLST     3        TIP3     OH2      OT      -0.834000       15.9994           0
         8 CLST     3        TIP3     H1       HT       0.417000       1.00800           0
         9 CLST     3        TIP3     H2       HT       0.417000       1.00800           0
        10 CLST     4        TIP3     OH2      OT      -0.834000       15.9994           0
        11 CLST     4        TIP3     H1       HT       0.417000       1.00800           0
        12 CLST     4        TIP3     H2       HT       0.417000       1.00800           0
        13 CLST     5        TIP3     OH2      OT      -0.834000       15.9994           0
        14 CLST     5        TIP3     H1       HT       0.417000       1.00800           0
        15 CLST     5        TIP3     H2       HT       0.417000       1.00800           0
        16 CLST     6        TIP3     OH2      OT      -0.834000       15.9994           0
        17 CLST     6        TIP3     H1       HT       0.417000       1.00800           0
        18 CLST     6        TIP3     H2       HT       0.417000       1.00800           0
        19 CLST     7        TIP3     OH2      OT      -0.834000       15.9994           0
        20 CLST     7        TIP3     H1       HT       0.417000       1.00800           0
        21 CLST     7        TIP3     H2       HT       0.417000       1.00800           0
        22 CLST     8        TIP3     OH2      OT      -0.834000       15.9994           0
        23 CLST     8        TIP3     H1       HT       0.417000       1.00800           0
        24 CLST     8        TIP3     H2       HT       0.417000       1.00800           0
        25 CLST     9        TIP3     OH2      OT      -0.834000       15.9994           0
        26 CLST     9        TIP3     H1       HT       0.417000       1.00800           0
        27 CLST     9        TIP3     H2       HT       0.417000       1.00800           0
        28 CLST     10       TIP3     OH2      OT      -0.834000       15.9994           0
        29 CLST     10       TIP3     H1       HT       0.417000       1.00800           0
        30 CLST     10       TIP3     H2       HT       0.417000       1.00800           0
        31 CLST     11       TIP3     OH2      OT      -0.834000       15.9994           0
        32 CLST     11       TIP3     H1       HT       0.417000       1.00800           0
        33 CLST     11       TIP3     H2       HT       0.417000       1.00800           0
        34 CLST     12       TIP3     OH2      OT      -0.834000       15.9994           0
        35 CLST     12       TIP3     H1       HT       0.417000       1.00800           0
        36 CLST     12       TIP3     H2       HT       0.417000       1.00800           0
        37 CLST     13       TIP3     OH2      OT      -0.834000       15.9994           0
        38 CLST     13       TIP3     H1       HT       0.417000       1.00800           0
        39 CLST     13       TIP3     H2       HT       0.417000       1.00800           0
        40 CLST     14       TIP3     OH2      OT      -0.834000       15.9994           0
        41 CLST     14       TIP3     H1       HT       0.417000       1.00800           0
        42 CLST     14       TIP3     H2       HT       0.417000       1.00800           0
        43 CLST     15       TIP3     OH2      OT      -0.834000       15.9994           0
        44 CLST     15       TIP3     H1       HT       0.417000       1.00800           0
        45 CLST     15       TIP3     H2       HT       0.417000       1.00800           0
        46 CLST     16       TIP3     OH2      OT      -0.834000       15.9994           0
        47 CLST     16       TIP3     H1       HT       0.417000       1.00800           0
        48 CLST     16       TIP3     H2       HT       0.417000       1.00800           0
        49 CLST     17       TIP3     OH2      OT      -0.834000       15.9994           0
        50 CLST     17       TIP3     H1       HT       0.417000       1.00800           0
        51 CLST     17       TIP3     H2       HT       0.417000       1.00800           0
        52 CLST     18       TIP3     OH2      OT      -0.834000       15.9994           0
        53 CLST     18       TIP3     H1       HT       0.417000       1.00800           0
        54 CLST     18       TIP3     H2       HT       0.417000       1.00800           0
        55 CLST     19       TIP3     OH2      OT      -0.834000       15.9994           0
        56 CLST     19       TIP3     H1       HT       0.417000       1.00800           0
        57 CLST     19       TIP3     H2       HT       0.417000       1.00800           0
        58 CLST     20       TIP3     OH2      OT      -0.834000       15.9994           0
        59 CLST     20       TIP3     H1       HT       0.417000       1.00800           0
        60 CLST     20       TIP3     H2       HT       0.417000       1.00800           0
        61 CLST     21       TIP3     OH2      OT      -0.834000       15.9994           0
        62 CLST     21       TIP3     H1       HT       0.417000       1.00800           0
        63 CLST     21       TIP3     H2       HT       0.417000       1.00800           0
        64 CLST     22       TIP3     OH2      OT      -0.834000       15.9994           0
        65 CLST     22       TIP3     H1       HT       0.417000       1.00800           0
        66 CLST     22       TIP3     H2       HT       0.417000       1.00800           0
        67 CLST     23       TIP3     OH2      OT      -0.834000       15.9994           0
        68 CLST     23       TIP3     H1       HT       0.417000       1.00800           0
        69 CLST     23       TIP3     H2       HT       0.417000       1.00800           0
        70 CLST     24       TIP3     OH2      OT      -0.834000       15.9994           0
        71 CLST     24       TIP3     H1       HT       0.417000       1.00800           0
        72 CLST     24       TIP3     H2       HT       0.417000       1.00800           0
        73 CLST     25       TIP3     OH2      OT      -0.834000       15.9994           0
        74 CLST     25       TIP3     H1       HT       0.417000       1.00800           0
        75 CLST     25       TIP3     H2       HT       0.417000       1.00800           0
        76 CLST     26       TIP3     OH2      OT      -0.834000       15.9994           0
        77 CLST     26       TIP3     H1       HT       0.417000       1.00800           0
        78 CLST     26       TIP3     H2       HT       0.417000       1.00800           0
        79 CLST     27       TIP3     OH2      OT      -0.834000       15.9994           0
        80 CLST     27       TIP3     H1       HT       0.417000       1.00800           0
        81 CLST     27       TIP3     H2       HT       0.417000       1.00800           0
        82 CLST     28       TIP3     OH2      OT      -0.834000       15.9994           0
        83 CLST     28       TIP3     H1       HT       0.417000       1.00800           0
        84 CLST     28       TIP3     H2       HT       0.417000       1.00800           0
        85 CLST     29       TIP3     OH2      OT      -0.834000       15.9994           0
        86 CLST     29       TIP3     H1       HT       0.417000       1.00800           0
        87 CLST     29       TIP3     H2       HT       0.417000       1.00800           0
        88 CLST     30       TIP3     OH2      OT      -0.834000       15.9994           0
        89 CLST     30       TIP3     H1       HT       0.417000       1.00800           0
        90 CLST     30       TIP3     H2       HT       0.417000       1.00800           0
        91 CLST     31       TIP3     OH2      OT      -0.834000       15.9994           0
        92 CLST     31       TIP3     H1       HT       0.417000       1.00800           0
        93 CLST     31       TIP3     H2       HT       0.417000       1.00800           0
        94 CLST     32       TIP3     OH2      OT      -0.834000       15.9994           0
        95 CLST     32       TIP3     H1       HT       0.417000       1.00800           0
        96 CLST     32       TIP3     H2       HT       0.417000       1.00800           0
        97 CLST     33       TIP3     OH2      OT      -0.834000       15.9994           0
        98 CLST     33       TIP3     H1       HT       0.417000       1.00800           0
        99 CLST     33       TIP3     H2       HT       0.417000       1.00800           0
       100 CLST     34       TIP3     OH2      OT      -0.834000       15.9994           0
       101 CLST     34       TIP3     H1       HT       0.417000       1.00800           0
       102 CLST     34       TIP3     H2       HT       0.417000       1.00800           0
       103 CLST     35       TIP3     OH2      OT      -0.834000       15.9994           0
       104 CLST     35       TIP3     H1       HT       0.417000       1.00800           0
       105 CLST     35       TIP3     H2       HT       0.417000       1.00800           0
       106 CLST     36       TIP3     OH2      OT      -0.834000       15.9994           0
       107 CLST     36       TIP3     H1       HT       0.417000       1.00800           0
       108 CLST     36       TIP3     H2       HT       0.417000       1.00800           0
       109 CLST     37       TIP3     OH2      OT      -0.834000       15.9994           0
       110 CLST     37       TIP3     H1       HT       0.417000       1.00800           0
       111 CLST     37       TIP3     H2       HT       0.417000       1.00800           0
       112 CLST     38       TIP3     OH2      OT      -0.834000       15.9994           0
       113 CLST     38       TIP3     H1       HT       0.417000       1.00800           0
       114 CLST     38       TIP3     H2       HT       0.417000       1.00800           0
       115 CLST     39       TIP3     OH2      OT      -0.834000       15.9994           0
       116 CLST     39       TIP3     H1       HT       0.417000       1.00800           0
       117 CLST     39       TIP3     H2       HT       0.417000       1.00800           0
       118 CLST     40       TIP3     OH2      OT      -0.834000       15.9994           0
       119 CLST     40       TIP3     H1       HT       0.417000       1.00800           0
       120 CLST     40       TIP3     H2       HT       0.417000       1.00800           0
       121 CLST     41       TIP3     OH2      OT      -0.834000       15.9994           0
       122 CLST     41       TIP3     H1       HT       0.417000       1.00800           0
       123 CLST     41       TIP3     H2       HT       0.417000       1.00800           0
       124 CLST     42       TIP3     OH2      OT      -0.834000       15.9994           0
       125 CLST     42       TIP3     H1       HT       0.417000       1.00800           0
       126 CLST     42       TIP3     H2       HT       0.417000       1.00800           0
       127 CLST     43       TIP3     OH2      OT      -0.834000       15.9994           0
       128 CLST     43       TIP3     H1       HT       0.417000       1.00800           0
       129 CLST     43       TIP3     H2       HT       0.417000       1.00800           0
       130 CLST     44       TIP3     OH2      OT      -0.834000       15.9994           0
       131 CLST     44       TIP3     H1       HT       0.417000       1.00800           0
       132 CLST     44       TIP3     H2       HT       0.417000       1.00800           0
       133 CLST     45       TIP3     OH2      OT      -0.834000       15.9994           0
       134 CLST     45       TIP3     H1       HT       0.417000       1.00800           0
       135 CLST     45       TIP3     H2       HT       0.417000       1.00800           0
       136 CLST     46       TIP3     OH2      OT      -0.834000       15.9994           0
       137 CLST     46       TIP3     H1       HT       0.417000       1.00800           0
       138 CLST     46       TIP3     H2       HT       0.417000       1.00800           0
       139 CLST     47       TIP3     OH2      OT      -0.834000       15.9994           0
       140 CLST     47       TIP3     H1       HT       0.417000       1.00800           0
       141 CLST     47       TIP3     H2       HT       0.417000       1.00800           0
       142 CLST     48       TIP3     OH2      OT      -0.834000       15.9994           0
       143 CLST     48       TIP3     H1       HT       0.417000       1.00800           0
       144 CLST     48       TIP3     H2       HT       0.417000       1.00800           0
       145 CLST     49       TIP3     OH2      OT      -0.834000       15.9994           0
       146 CLST     49       TIP3     H1       HT       0.417000       1.00800           0
       147 CLST     49       TIP3     H2       HT       0.417000       1.00800           0
       148 CLST     50       TIP3     OH2      OT      -0.834000       15.9994           0
       149 CLST     50       TIP3     H1       HT       0.417000       1.00800           0
       150 CLST     50       TIP3     H2       HT       0.417000       1.00800           0

       150 !NBOND: bonds
         1         2         1         3         2         3         4         5
         4         6         5         6         7         8         7         9
         8         9        10        11        10        12        11        12
        13        14        13        15        14        15        16        17
        16        18        17        18        19        20        19        21
        20        21        22        23        22        24        23        24
        25        26        25        27        26        27        28        29
        28        30        29        30        31        32        31        33
        32        33        34        35        34        36        35        36
        37        38        37        39        38        39        40        41
        40        42        41        42        43        44        43        45
        44        45        46        47        46        48        47        48
        49        50        49        51        50        51        52        53
        52        54        53        54        55        56        55        57
        56        57        58        59        58        60        59        60
        61        62        61        63        62        63        64        65
        64        66        65        66        67        68        67        69
        68        69        70        71        70        72        71        72
        73        74        73        75        74        75        76        77
        76        78        77        78        79        80        79        81
        80        81        82        83        82        84        83        84
        85        86        85        87        86        87        88        89
        88        90        89        90        91        92        91        93
        92        93        94        95        94        96        95        96
        97        98        97        99        98        99       100       101
       100       102       101       102       103       104       103       105
       104       105       106       107       106       108       107       108
       109       110       109       111       110       111       112       113
       112       114       113       114       115       116       115       117
       116       117       118       119       118       120       119       120
       121       122       121       123       122       123       124       125
       124       126       125       126       127       128       127       129
       128       129       130       131       130       132       131       132
       133       134       133       135       134       135       136       137
       136       138       137       138       139       140       139       141
       140       141       142       143       142       144       143       144
       145       146       145       147       146       147       148       149
       148       150       149       150

        50 !NTHETA: angles
         2         1         3         5         4         6         8         7         9
        11        10        12        14        13        15        17        16        18
        20        19        21        23        22        24        26        25        27
        29        28        30        32        31        33        35        34        36
        38        37        39        41        40        42        44        43        45
        47        46        48        50        49        51        53        52        54
        56        55        57        59        58        60        62        61        63
        65        64        66        68        67        69        71        70        72
        74        73        75        77        76        78        80        79        81
        83        82        84        86        85        87        89        88        90
        92        91        93        95        94        96        98        97        99
       101       100       102       104       103       105       107       106       108
       110       109       111       113       112       114       116       115       117
       119       118       120       122       121       123       125       124       126
       128       127       129       131       130       132       134       133       135
       137       136       138       140       139       141       143       142       144
       146       145       147       149       148       150

         0 !NPHI: dihedrals


         0 !NIMPHI: impropers


         0 !NDON: donors


        50 !NACC: acceptors
         1         0         4         0         7         0        10         0
        13         0        16         0        19         0        22         0
        25         0        28         0        31         0        34         0
        37         0        40         0        43         0        46         0
        49         0        52         0        55         0        58         0
        61         0        64         0        67         0        70         0
        73         0        76         0        79         0        82         0
        85         0        88         0        91         0        94         0
        97         0       100         0       103         0       106         0
       109         0       112         0       115         0       118         0
       121         0       124         0       127         0       130         0
       133         0       136         0       139         0       142         0
       145         0       148         0

         0 !NNB

         0         0         0         0         0         0         0         0
         0         0         0         0         0         0         0         0
         0         0         0         0         0         0         0         0
         0         0         0         0         0         0         0         0
         0         0         0         0         0         0         0         0
         0         0         0         0         0         0         0         0
         0         0         0         0         0         0         0         0
         0         0         0         0         0         0         0         0
         0         0         0         0         0         0         0         0
         0         0         0         0         0         0         0         0
         0         0         0         0         0         0         0         0
         0         0         0         0         0         0         0         0
         0         0         0         0         0         0         0         0
         0         0         0         0         0         0         0         0
         0         0         0         0         0         0         0         0
         0         0         0         0         0         0         0         0
         0         0         0         0         0         0         0         0
         0         0         0         0         0         0         0         0
         0         0         0         0         0         0

        50         0 !NGRP NST2
         0         1         0         3         1         0         6         1         0
         9         1         0        12         1         0        15         1         0
        18         1         0        21         1         0        24         1         0
        27         1         0        30         1         0        33         1         0
        36         1         0        39         1         0        42         1         0
        45         1         0        48         1         0        51         1         0
        54         1         0        57         1         0        60         1         0
        63         1         0        66         1         0        69         1         0
        72         1         0        75         1         0        78         1         0
        81         1         0        84         1         0        87         1         0
        90         1         0        93         1         0        96         1         0
        99         1         0       102         1         0       105         1         0
       108         1         0       111         1         0       114         1         0
       117         1         0       120         1         0       123         1         0
       126         1         0       129         1         0       132         1         0
       135         1         0       138         1         0       141         1         0
       144         1         0       147         1         0

         0         0 !NUMLP NUMLPH

         0 !NCRTERM: cross-terms


         0 !AUTOGEN
       111       111       111       111       111       111       111       111
       111       111       111       111       111       111       111       111
       111       111       111       111       111       111       111       111
       111       111       111       111       111       111       111       111
       111       111       111       111       111       111       111       111
       111       111       111       111       111       111       111       111
       111       111       111       111       111       111       111       111
       111       111       111       111       111       111       111       111
       111       111       111       111       111       111       111       111
       111       111       111       111       111       111       111       111
       111       111       111       111       111       111       111       111
       111       111       111       111       111       111       111       111
       111       111       111       111       111       111       111       111
       111       111       111       111       111       111       111       111
       111       111       111       111       111       111       111       111
       111       111       111       111       111       111       111       111
       111       111       111       111       111       111       111       111
       111       111       111       111       111       111       111       111
       111       111       111       111       111       111
         0         0         0         0         0         0         0         0
         0         0         0         0         0         0         0         0
         0         0         0         0         0         0         0         0
         0         0         0         0         0         0         0         0
         0         0         0         0         0         0         0         0
         0         0         0         0         0         0         0         0
         0         0         0         0         0         0         0         0
         0         0         0         0         0         0         0         0
         0         0         0         0         0         0         0         0
         0         0         0         0         0         0         0         0
         0         0         0         0         0         0         0         0
         0         0         0         0         0         0         0         0
         0         0         0         0         0         0         0         0
         0         0         0         0         0         0         0         0
         0         0         0         0         0         0         0         0
         0         0         0         0         0         0         0         0
         0         0         0         0         0         0         0         0
         0         0         0         0         0         0         0         0
         0         0         0         0         0         0
